LAMMPS data file via write_data, version 19 Sep 2019, timestep = 2500000

41928 atoms
4 atom types
34200 bonds
3 bond types

0.0000000000000000e+00 5.7000000000000000e+01 xlo xhi
0.0000000000000000e+00 9.0000000000000000e+01 ylo yhi
-5.1548059385988082e-03 2.5932118187435211e+01 zlo zhi

Masses

1 1
2 1
3 1
4 1

Atoms

1	1	1	1.15389255327	27.3907741588	7.60980942575
2	1	1	2.05463410058	27.0942265649	7.42172740024
3	1	1	1.99145251759	26.2999195767	6.86271428339
4	1	1	2.26109999149	27.0669282167	6.29286117701
5	1	1	2.48190893895	26.2964807266	5.76052751318
6	1	2	3.26303304559	26.3967341917	5.13944592884
7	1	2	3.75168290795	25.8959158363	4.41679080735
8	1	2	3.19105170648	26.455097526	3.89293837627
9	1	2	2.40254117417	26.9446953088	3.53465449659
10	1	2	2.49085035465	27.6412419705	4.21059657942
11	1	2	2.03477978734	28.1498550553	3.53074810521
12	1	2	2.3653832032	28.966754725	3.08471888238
13	1	2	3.26296190858	29.0908360923	2.66913085425
14	1	2	4.03149330434	29.1955286651	2.1181458631
15	1	2	4.64055757906	28.9603724169	2.86918974319
16	1	2	4.01623694095	28.4743204396	3.40645188939
17	1	2	4.87944271876	28.6200399745	3.80696126637
18	1	2	4.44352698952	27.9105967009	4.21430005679
19	1	2	3.69217098287	27.397967025	3.84212969785
20	1	2	4.36799503614	27.4249374892	3.16889180882
21	2	1	25.7738424869	49.6155461295	3.98353493672
22	2	1	26.1892194248	48.8923248459	3.564660603
23	2	1	26.745419865	48.3555369635	2.96126289465
24	2	1	26.7835257727	47.3774461925	2.90565847004
25	2	1	27.4454826398	46.740981943	2.85678414243
26	2	2	28.240160078	46.2116452566	2.64854560484
27	2	2	28.3733669754	47.0953329078	2.38693007999
28	2	2	28.3811194601	46.7183635429	1.49591311142
29	2	2	28.1274457951	47.562334071	1.08533778934
30	2	2	27.8718582115	48.4976105975	1.09368012156
31	2	2	28.6686786903	48.6230273625	1.6518760105
32	2	2	27.9692573814	48.1851002935	2.14092066442
33	2	2	27.8834569445	47.790363664	2.96611118916
34	2	2	28.1408985318	47.0566376136	3.54929187754
35	2	2	27.8566890913	47.8891363579	3.9808693154
36	2	2	28.4893469843	47.4154949997	4.52243096499
37	2	2	27.9240896825	46.6371667012	4.46557139685
38	2	2	27.7845409846	46.1363078323	5.29851718403
39	2	2	26.9345892625	46.5951818102	5.19679656854
40	2	2	26.4709504252	46.3414279723	4.41727093394
41	3	1	23.6302293416	39.3194961779	1.3921078476
42	3	1	24.0528714107	39.1123802895	2.24745561707
43	3	1	23.8205881587	39.4355089632	3.13755356005
44	3	1	24.687669322	39.1162158454	3.38369572913
45	3	1	25.0435824392	38.6515404493	4.14156333446
46	3	2	25.6534342998	38.856267623	4.91543062362
47	3	2	25.0382919107	38.2580289915	5.37995280889
48	3	2	25.1804440406	38.9357016507	6.06237208473
49	3	2	25.1654880851	39.7072400374	5.50664930475
50	3	2	24.4648380934	39.112878567	5.1794916676
51	3	2	23.6371501388	39.485622379	5.56670432389
52	3	2	24.2024856562	40.1412495748	6.03858671715
53	3	2	23.3565432338	40.546675033	5.82316066925
54	3	2	23.0599498444	39.8842171168	6.43812703825
55	3	2	22.2687855198	40.3222640308	6.07048290367
56	3	2	21.8238092613	41.1486631316	6.07001119652
57	3	2	22.1551622917	41.8819593948	6.57805743003
58	3	2	22.5074371345	42.0733656679	5.72180892492
59	3	2	23.3297170352	42.467390859	6.08441238786
60	3	2	24.2364980812	42.3307590758	6.40042412999
61	4	1	29.5158833809	3.24226068004	2.906225681
62	4	1	29.9150322054	3.64105800514	2.16969487541
63	4	1	28.9827582879	3.45531000817	2.03811356242
64	4	1	28.3503143081	4.18237250735	1.75983065601
65	4	1	28.1603913687	5.0711321466	1.56628019169
66	4	2	27.2472524215	4.97184114803	1.35636350529
67	4	2	27.5135989918	5.90960153014	1.3454362923
68	4	2	28.0830233389	6.66091182422	1.58492244856
69	4	2	27.4895834569	6.80788329661	2.3349827356
70	4	2	27.9361767959	7.67920117284	2.33924295113
71	4	2	28.3321229138	8.08424844848	3.12007229223
72	4	2	29.1008866426	7.84522671475	2.57908807962
73	4	2	28.9873955513	7.24917198382	3.29822276464
74	4	2	28.5765723058	6.79384196028	2.55718308387
75	4	2	29.309059531	6.55179981851	2.04725748771
76	4	2	29.1222046302	6.97496202564	1.17429132981
77	4	2	28.7113296811	7.80030528287	1.54539426158
78	4	2	29.1390979744	8.66031681889	1.54279247139
79	4	2	29.6664624283	8.94513956922	2.21136563166
80	4	2	30.091752206	9.29165793984	3.05769097012
81	5	1	19.571430853	13.7974562355	7.14329110604
82	5	1	19.9572132487	14.5650910535	7.55073085328
83	5	1	19.7316519095	15.3918954487	7.04516323585
84	5	1	19.0107219479	15.1494702623	6.46617742482
85	5	1	19.009896941	15.5465537667	5.53630036105
86	5	2	18.228544909	15.0182767239	5.67838608368
87	5	2	19.0435976124	14.521381589	5.46988643762
88	5	2	19.7958404754	14.4286242742	4.89723100487
89	5	2	19.9902437407	13.6882576058	4.31289291458
90	5	2	20.5325412299	12.989868154	4.65442950605
91	5	2	20.9934449442	12.8358886353	5.49584086052
92	5	2	20.5212566556	12.0863300957	5.79570298381
93	5	2	20.9506013142	11.3041318013	5.45329558052
94	5	2	20.8323309784	10.6903775932	4.71555886291
95	5	2	20.334402925	10.3783734983	5.49354270808
96	5	2	20.5512186294	10.2285509923	6.41853358163
97	5	2	19.6488770072	10.3959407551	6.59529387415
98	5	2	19.1967821985	10.058762014	5.79441691424
99	5	2	19.1046354553	9.15461608896	5.37919168742
100	5	2	18.2045726355	9.34401993227	5.13773216875
101	6	1	13.7623509247	36.8290211526	2.96970520943
102	6	1	13.4266598963	36.17807811	3.56851991024
103	6	1	12.636407956	35.7303549051	3.98935310059
104	6	1	12.5383811019	35.8201716193	3.02425434329
105	6	1	11.601527698	35.6310302836	2.95366127428
106	6	2	11.9032452395	35.3176310331	2.11151023225
107	6	2	11.1527658133	34.8519209414	2.38978464315
108	6	2	10.4937197289	34.7585881923	3.10068302551
109	6	2	10.3051118789	33.8323683125	3.27726540283
110	6	2	9.96113617331	33.0659475847	2.83631425825
111	6	2	10.0219710271	32.8405528558	1.90684074763
112	6	2	9.58763481828	33.7115929466	2.10927006401
113	6	2	10.1596856456	34.4617072407	1.86990783401
114	6	2	10.1340879637	35.3307233972	2.26649126135
115	6	2	10.9105569915	35.8281053499	2.12670113007
116	6	2	11.0078677766	36.1217708122	1.23588845491
117	6	2	10.7446802732	35.2228715662	1.20576059647
118	6	2	11.1538232721	34.3649767191	1.36413555877
119	6	2	10.6002899463	33.5725106178	1.4666142325
120	6	2	10.8796234864	33.6840271954	2.38280992149
121	7	1	4.19948861107	33.6652589746	3.9789034225
122	7	1	4.74691301131	34.4247117034	3.9412042254
123	7	1	4.27602768993	35.226641598	4.30058034668
124	7	1	3.33943242664	35.3433105201	4.30554839667
125	7	1	3.39769568691	35.0847941204	5.20670834372
126	7	2	2.85423911662	34.3395383826	5.41276387011
127	7	2	3.4222625173	34.3196586549	4.58204852339
128	7	2	4.24520806816	34.5395083823	5.05281627996
129	7	2	4.90063724695	35.2171436459	5.18630373704
130	7	2	5.58576764308	34.7677105761	4.75130547076
131	7	2	5.25976838401	35.4531847384	4.10580739907
132	7	2	6.19756767911	35.7599810623	4.05348524685
133	7	2	6.72464655104	35.951675307	3.30147264899
134	7	2	7.46076349115	36.4748123056	3.08196259661
135	7	2	7.7145097427	35.8051068446	2.44013062826
136	7	2	7.37054135228	35.1075220978	3.01567040024
137	7	2	7.96638280465	34.3359739463	2.94951893542
138	7	2	7.93723236218	34.759960285	2.10587809268
139	7	2	7.29849054082	34.2761322496	1.62685337148
140	7	2	6.98984252505	35.1992623073	1.75793007228
141	8	1	16.6060600964	62.2774420953	2.03594357041
142	8	1	17.0337792796	61.6932230131	1.37999055037
143	8	1	16.71900567	62.4946445431	0.959454752642
144	8	1	17.6206475284	62.5861035102	1.28663053037
145	8	1	18.4066934241	62.6506526948	1.77313030183
146	8	2	18.6765775111	63.3399572394	1.15696697084
147	8	2	17.7965170314	63.7166964367	1.16144896136
148	8	2	17.0184403269	63.4410478871	1.67973115218
149	8	2	16.1285048854	63.1788946648	1.48213639347
150	8	2	15.2668579143	62.8269211646	1.79335871147
151	8	2	14.3824095458	62.6225316432	1.97287329311
152	8	2	14.6751163548	62.1571749942	1.18592777367
153	8	2	14.4322944823	61.2659801149	1.13572679483
154	8	2	14.8865932407	60.4810386201	1.46961456862
155	8	2	14.5267445438	59.665049802	1.09854397273
156	8	2	13.8193572523	60.3235534127	1.17404622848
157	8	2	13.2586663025	60.0066197464	1.89983240884
158	8	2	13.3249274643	59.393724054	1.1875545561
159	8	2	14.0438391167	59.1368302087	1.75304977767
160	8	2	13.4127142117	58.5722810256	2.22462275064
161	9	1	30.0065650899	82.0387599456	5.92079446072
162	9	1	30.6942783426	81.4443713559	6.22370381384
163	9	1	31.5388597602	80.9950037681	6.36044004112
164	9	1	30.8403252674	80.3674049592	6.43493755765
165	9	1	30.8688281593	79.7629004658	5.67786765496
166	9	2	30.363586918	79.2592967284	6.34985742896
167	9	2	30.7815138775	78.9197326637	7.12237107876
168	9	2	31.3983578767	79.6830071851	7.30081480285
169	9	2	32.2592117084	79.6801813075	7.64299305853
170	9	2	32.6198059408	78.9333280342	8.05659731007
171	9	2	33.5023206623	79.0535010266	7.63698541618
172	9	2	33.2920880069	78.1180729609	7.76152709628
173	9	2	33.157391445	77.3656985154	8.31741906851
174	9	2	33.7509194988	76.9304845848	7.71551480854
175	9	2	33.8960159155	76.4273350093	6.93453983743
176	9	2	33.5858112616	77.3546444738	6.76870420642
177	9	2	33.418478382	76.7689686644	6.02329006008
178	9	2	33.6135834439	75.8367036584	5.95911778877
179	9	2	34.0609409313	76.381433109	5.29905701131
180	9	2	34.6252067175	75.5352184265	5.4815325993
181	10	1	13.1309280834	1.44687985305	2.27160013569
182	10	1	13.4699898203	0.81819130102	1.6205029224
183	10	1	12.4638796277	0.824496707716	1.76260914118
184	10	1	12.2251362715	0.118479196917	2.39805444411
185	10	1	12.8343862152	0.532501971503	2.93260861246
186	10	2	13.5683653384	0.154018348648	3.42302715767
187	10	2	13.9811241836	89.4096300722	3.03933060822
188	10	2	14.7113682524	89.3967225138	3.66110938013
189	10	2	15.4893859856	89.0188015516	3.18771543822
190	10	2	16.2120250159	89.3723478912	3.68991303974
191	10	2	15.5734593929	88.9432380386	4.34352174186
192	10	2	15.3495701844	88.0321408852	4.49863374912
193	10	2	14.5668293771	88.5156411135	4.20797341588
194	10	2	14.0973456018	88.6153011698	5.05030227791
195	10	2	14.512459339	89.4137499009	4.76925357635
196	10	2	13.9306289212	89.7608785538	5.43897602859
197	10	2	14.4710277459	0.411342300807	4.95235267736
198	10	2	13.8947087144	0.78748291836	5.5588312496
199	10	2	13.9820398758	1.69892889681	5.91747390398
200	10	2	13.4864637082	1.54069354397	6.71705100165
201	11	1	20.4323449166	84.8501037554	6.36947590351
202	11	1	20.3087564933	84.7997014734	5.39819356466
203	11	1	20.9082583814	84.0547909604	5.50447712721
204	11	1	20.3188122672	83.9297140704	4.6764161783
205	11	1	20.3202396478	83.2737441766	3.98816233199
206	11	2	19.3464477913	83.1314561375	4.05214028387
207	11	2	18.7076346483	82.3933249131	3.96731980458
208	11	2	19.4267234059	82.2931325463	3.32762994119
209	11	2	19.1471509611	82.7091392919	2.53382587948
210	11	2	18.9325542069	81.834091491	2.20673369311
211	11	2	19.6172843811	82.0974362184	1.62546250225
212	11	2	19.8456728131	83.0489284198	1.70344380871
213	11	2	20.7045010011	83.4181037961	1.42712266522
214	11	2	21.5448214559	83.7736523633	1.62973491425
215	11	2	22.4682363032	83.6427949727	1.71193273268
216	11	2	22.370383199	82.73686861	1.98493188828
217	11	2	21.9100912069	83.2973454509	2.62920570236
218	11	2	22.1166082184	82.6517448708	3.30168338668
219	11	2	21.3147746806	83.0445485339	3.54653921712
220	11	2	22.0206264565	83.6564653331	3.70101613767
221	12	1	29.0512748822	60.7002252383	7.50824941281
222	12	1	29.0372408438	60.4402658883	6.60132921479
223	12	1	29.9094495407	60.3930984395	6.3233983311
224	12	1	30.3013001034	59.6580210545	5.731898459
225	12	1	30.3990469239	58.7252030851	5.76373198043
226	12	2	31.2003774936	59.2062862623	5.99807392444
227	12	2	31.8743866562	59.4481677969	6.72046712813
228	12	2	32.535798123	58.9880379079	6.16269486128
229	12	2	33.2412899937	59.3305406783	5.63870559699
230	12	2	33.5670963387	59.3196429129	4.70917922978
231	12	2	32.6402763217	59.6054336953	4.76798329776
232	12	2	31.975484398	59.4016008054	5.41385761388
233	12	2	31.7178367813	58.9657899622	4.57344065639
234	12	2	30.9283853626	59.4235901621	4.91174714095
235	12	2	30.0183704993	59.6725348919	4.66674693503
236	12	2	30.1605789313	58.7017791379	4.68816165786
237	12	2	29.4252099098	58.9175370607	4.1071299944
238	12	2	29.3335037506	59.6545949236	3.53568549911
239	12	2	29.5444741207	59.9894147993	2.65659758056
240	12	2	28.9469036452	59.9915654241	1.87530054184
241	13	1	52.3284507855	14.0628787804	1.0117048442
242	13	1	52.727462594	14.8905069166	1.17889401677
243	13	1	53.4824907883	14.8619564235	1.83034316168
244	13	1	53.8983543225	15.1603212759	1.04404689586
245	13	1	54.7932052837	15.5206096821	1.05009910314
246	13	2	55.759160299	15.6099362674	1.15296123716
247	13	2	55.3131237985	15.7469403136	1.97755012852
248	13	2	55.6517306442	15.5091399394	2.84887605724
249	13	2	55.4320959997	16.4489480181	2.91973642998
250	13	2	55.1004161015	16.779112242	2.11030724362
251	13	2	55.0469705389	16.4704785091	1.20399898498
252	13	2	54.5356915922	17.3115210389	1.28965503759
253	13	2	55.5180456422	17.4589446283	1.3708811716
254	13	2	55.2371479386	18.3964989939	1.1496602521
255	13	2	54.2952710984	18.553864581	1.40999917922
256	13	2	54.9751380449	18.8982731246	2.00077236766
257	13	2	54.4770136425	19.7015876095	1.96690622803
258	13	2	55.0936325443	20.1450737503	1.37193697479
259	13	2	54.2773723682	20.6349978209	1.20537452848
260	13	2	53.9461697798	19.7435353135	1.07117249606
261	14	1	27.3956965882	36.8113476628	6.47714762648
262	14	1	26.6452301238	37.3860741114	6.58226076251
263	14	1	26.5609022155	37.2018307489	5.63213505089
264	14	1	26.2645190314	36.639975885	4.96386897979
265	14	1	25.7697234392	36.0709648894	4.29831306832
266	14	2	25.6573393848	35.6792186608	5.19437986752
267	14	2	25.7949912353	35.0313478163	4.46298466527
268	14	2	25.0634453019	34.800588592	5.01752457968
269	14	2	25.6018288242	34.5588200916	5.75986566465
270	14	2	24.9389984536	34.5199725936	6.46157062531
271	14	2	24.7602204184	33.613393677	6.38676623411
272	14	2	25.0278495199	33.3516993889	7.3307098608
273	14	2	25.9697662396	33.6728113984	7.35882134256
274	14	2	25.8147482131	33.6682926824	6.36222054728
275	14	2	26.1106330747	33.6082798536	5.47419770216
276	14	2	25.8804341759	32.7220922849	5.67087167931
277	14	2	25.2248150946	32.0306264959	5.81032575156
278	14	2	25.0886340728	31.2178398372	6.3147034887
279	14	2	24.9097771902	30.6430862835	5.589181749
280	14	2	24.259125206	31.384946841	5.61901258803
281	15	1	8.54069049545	2.84640717087	2.90216246006
282	15	1	8.41417871698	3.33066225685	3.71079944131
283	15	1	8.27755460828	2.89075901581	4.53621764309
284	15	1	7.42799694148	3.22615644245	4.25746119295
285	15	1	6.68701120474	3.4294045281	3.72623922807
286	15	2	7.41099216561	4.11742762701	3.82743425397
287	15	2	7.50669212698	3.66499407049	2.97597110873
288	15	2	7.51357191781	2.74682023565	3.3265330971
289	15	2	6.91019605099	2.1305497557	2.84800759345
290	15	2	6.24996131988	1.60000877795	3.20634038495
291	15	2	5.98291984257	1.43261922333	4.09754547387
292	15	2	5.25675754385	2.0639319924	4.07639227125
293	15	2	5.88957300568	2.67127764825	3.62410946976
294	15	2	6.76419503703	2.3069572596	3.88286263709
295	15	2	7.10323694382	1.51532648907	4.29162138211
296	15	2	7.91014585258	2.033959623	4.10141540262
297	15	2	8.1705158447	1.76125788273	4.97865762896
298	15	2	8.66931480512	0.932377121844	5.00488030338
299	15	2	9.54751967459	1.27771564258	5.06340556642
300	15	2	9.51077489786	0.308224552548	4.8665276229
301	16	1	14.995975804	59.8686288213	5.14301967943
302	16	1	15.8345321423	59.3849893787	4.97731661483
303	16	1	16.1294917797	59.925173166	4.17471684077
304	16	1	16.008664783	60.8166308997	3.84404762842
305	16	1	16.3836487605	61.4639252226	4.41791500521
306	16	2	16.7866382883	60.6388180593	4.65892171208
307	16	2	16.4647515192	60.1510893552	5.41481586918
308	16	2	16.6256952861	61.0536533422	5.67436429405
309	16	2	16.3564946318	60.9481129493	6.59197161315
310	16	2	15.9531867533	60.139688486	6.91907893044
311	16	2	15.8377417134	59.4645178059	6.24510143979
312	16	2	16.559171764	59.0752787897	5.78643589132
313	16	2	17.1909531607	58.5353930777	5.29798731667
314	16	2	17.0974719097	57.5986564434	5.53301696088
315	16	2	17.7962388591	57.2667788332	6.09330135439
316	16	2	18.088083581	58.0993474709	5.73461208307
317	16	2	18.7248779126	58.8014377388	5.86939015445
318	16	2	19.0301501257	59.4747883685	5.24157501758
319	16	2	19.4015312516	58.7544291593	4.77429957726
320	16	2	19.0829985316	58.3864164316	3.96648105087
321	17	1	48.638349927	43.8072436125	2.43028217024
322	17	1	49.1376235012	43.5991721041	1.68705200081
323	17	1	48.3758715901	43.3128978363	1.18520153806
324	17	1	47.9815819786	42.5003591909	1.04934425936
325	17	1	47.2203295723	43.0124040939	1.47757411123
326	17	2	47.6404860994	43.451558836	2.19184480915
327	17	2	47.7484237196	42.4634966517	2.23947906907
328	17	2	47.0230912265	42.7006044043	2.8669002762
329	17	2	47.1093724531	41.7410424705	2.8400775196
330	17	2	46.708307451	41.2689482408	2.14720695981
331	17	2	46.2696346151	40.9429904241	2.92426828602
332	17	2	45.4229716817	40.6218095618	2.67613038343
333	17	2	45.9340190908	40.6251360998	1.89586585684
334	17	2	45.6310557791	40.3554353782	1.01880843864
335	17	2	45.8450651312	39.4506373218	1.09764395477
336	17	2	45.4322611425	39.6921975282	1.94782952817
337	17	2	46.1498069988	39.7827486616	2.61296562077
338	17	2	46.9004356966	40.2562008864	2.31967291306
339	17	2	46.8366709876	40.5718583692	1.36689042956
340	17	2	46.9692154883	39.700199919	1.05139865951
341	18	1	12.2932665806	13.1886764143	2.15211134313
342	18	1	12.8398445521	13.8748458606	2.57099576743
343	18	1	12.3455600086	13.8927651959	3.36957288924
344	18	1	12.1803706121	14.6498065078	2.85855242888
345	18	1	11.3117414112	14.906799258	2.66097594858
346	18	2	11.7206448249	15.7307019382	2.91889820005
347	18	2	11.9121218402	15.2596002763	3.74028684242
348	18	2	11.3872103745	14.4757009357	3.7400132946
349	18	2	11.3836975145	13.4706140783	3.7485677259
350	18	2	11.8069982548	12.7954527838	3.24892326533
351	18	2	10.9392805528	12.7154486816	2.89755777232
352	18	2	10.5480610843	13.2997803929	2.27550623298
353	18	2	9.88530076297	12.6055686188	2.23869268356
354	18	2	10.3900976788	12.5580624714	1.45504450023
355	18	2	9.95136997122	13.4432166173	1.43400629543
356	18	2	9.46809137802	13.6150927661	2.27470336465
357	18	2	9.13197572801	14.1881260541	1.58477856049
358	18	2	8.48234549844	14.3391707333	2.32931623325
359	18	2	9.34965891	14.7850895726	2.54156438889
360	18	2	9.33291867629	15.4919719064	3.21757906075
361	19	1	21.0223972564	60.3663034008	6.4643468313
362	19	1	20.8103532146	61.113495351	7.07799478547
363	19	1	20.0551544154	60.7333644888	6.66153680938
364	19	1	20.4141092016	61.360578282	5.99964225372
365	19	1	20.2325633184	62.2724456824	5.73311208133
366	19	2	19.3239378745	62.5676884077	5.501756732
367	19	2	18.6419939649	62.0444964912	5.0996941123
368	19	2	18.2850481852	61.1250022767	5.19442133357
369	19	2	18.608363545	60.9596286669	6.06483028353
370	19	2	17.9032017078	60.786257815	6.73968279462
371	19	2	17.6594291467	61.4340943435	6.03233463373
372	19	2	17.8797211184	61.8992410391	6.85845399539
373	19	2	18.5572053305	62.0041054655	6.20186966701
374	19	2	19.0105018854	62.7389988961	6.63157015136
375	19	2	19.8711692176	63.1553804863	6.44228606048
376	19	2	20.0738099244	62.3054952087	6.81012781972
377	19	2	19.5150100842	61.609140672	6.41338479404
378	19	2	19.371884456	61.4246771259	5.44917082441
379	19	2	19.3645038485	60.4693539854	5.64992920283
380	19	2	20.2953446826	60.2971755366	5.67757323495
381	20	1	18.2996135204	52.8150597068	4.53979845021
382	20	1	19.1813159584	53.1129176272	4.23634254515
383	20	1	18.619187002	53.7809744658	3.85956644649
384	20	1	18.9444066096	53.4068492941	3.05363763421
385	20	1	18.5702479088	53.3876182898	2.17526199664
386	20	2	18.4765048132	52.5480912319	2.70451789687
387	20	2	18.5626829356	52.4004101484	3.61288085477
388	20	2	18.9140013586	51.7550711164	3.05992473743
389	20	2	18.4529894942	50.9300246855	3.02686432692
390	20	2	17.8491883355	51.6633206476	3.21382941052
391	20	2	17.3656891306	50.8830057754	2.94442153216
392	20	2	17.6525977485	50.3885351448	3.67230840485
393	20	2	17.3185767054	51.1679548596	4.12184331664
394	20	2	17.1512284393	51.2026742599	5.08961625913
395	20	2	17.8045555119	51.9279568018	5.03941816302
396	20	2	17.5394290963	52.1650932314	4.1233367468
397	20	2	17.1282068043	52.6814720977	4.83568956481
398	20	2	16.8687481583	52.1433265403	5.57823874549
399	20	2	17.2599844138	52.9369400752	5.87429648768
400	20	2	17.3896667685	53.847115877	6.14597850626
401	21	1	49.013558519	10.7367398441	3.06167596693
402	21	1	49.9643906464	10.4661063138	3.04773024275
403	21	1	49.6058015353	10.2039082158	2.18280498323
404	21	1	48.7066567049	10.3544258813	2.06579852
405	21	1	48.5302844817	10.0531704086	1.17268600535
406	21	2	49.3219395884	10.6464992991	1.19189772743
407	21	2	50.0531366279	11.217378435	1.5336095843
408	21	2	49.3903768218	11.2448570807	2.23419811816
409	21	2	49.7722037608	12.1416083337	2.16081157857
410	21	2	48.9592024115	12.0610398332	2.75371134083
411	21	2	48.4368326084	12.2504248581	1.98801524471
412	21	2	49.0388792855	11.9608288693	1.24811218638
413	21	2	48.430474869	11.2130742279	1.44019212613
414	21	2	47.6257924272	10.7864415894	1.06139052988
415	21	2	47.1549567466	9.97376143041	1.20035946051
416	21	2	47.358074704	10.237362691	2.05244074308
417	21	2	46.9642982385	11.0702560024	1.83471177052
418	21	2	47.7317174163	11.4363542736	2.19895620132
419	21	2	47.4823894874	12.1807026513	2.82336492255
420	21	2	48.2154344588	12.7733382226	2.86738708045
421	22	1	43.3339080681	34.7916489774	4.18691787325
422	22	1	42.9653397216	35.648480673	4.06853384657
423	22	1	42.0866846909	35.6633455913	4.46047856932
424	22	1	41.2277610235	35.7683256844	4.95700187588
425	22	1	41.4852514126	34.8633192896	4.84241375428
426	22	2	40.9112066861	34.4542939115	5.46048739859
427	22	2	40.9439539595	35.2904348185	5.91001577138
428	22	2	41.5675539245	36.0222818724	5.92913449298
429	22	2	42.1817376901	35.4085457416	5.53465611233
430	22	2	42.5679738878	34.7059724267	5.06659648438
431	22	2	42.2244894179	34.6522241693	4.16289230144
432	22	2	41.6566758201	34.1353613557	3.55387742029
433	22	2	42.1897830462	33.5491384579	4.124614654
434	22	2	43.0883870785	33.7032536036	4.38910502044
435	22	2	43.1310776155	33.2756859545	3.56654534352
436	22	2	42.8581845067	34.2068965579	3.48325791122
437	22	2	42.4173220228	33.5574905491	2.90184397648
438	22	2	41.5433200632	33.6066094226	2.50330215128
439	22	2	40.6712255333	33.8303865477	2.76941561081
440	22	2	39.9255701626	34.375790071	2.8635920895
441	23	1	42.7070695715	54.3304154558	7.14010937745
442	23	1	41.8295383834	54.0553632911	6.87075782376
443	23	1	42.289928202	53.913870914	6.04179527382
444	23	1	42.0121700673	53.0410359763	6.42218539135
445	23	1	42.5916251078	52.6419452751	7.0433276525
446	23	2	41.8751928644	52.1067853969	7.37396734447
447	23	2	41.8955641906	51.9113757511	6.40030705352
448	23	2	41.2144206587	51.8775017979	5.69749335098
449	23	2	40.618937525	51.7321423645	4.93446427994
450	23	2	40.884551346	51.7439836529	3.99922053647
451	23	2	40.7652112476	50.8201277004	4.27760888114
452	23	2	40.0756833289	51.0949998582	3.70692831797
453	23	2	39.1371917522	51.3197027723	4.00782202111
454	23	2	38.8622519716	52.0955486613	4.45010292238
455	23	2	39.0118666342	52.4792086171	3.59789333468
456	23	2	38.0304217995	52.4585893228	3.67486135116
457	23	2	37.4008526156	52.6479103904	2.97666689215
458	23	2	37.4549047981	53.5125735526	2.61326912418
459	23	2	37.200038886	53.6441137187	1.67490975409
460	23	2	37.0933843435	54.4380543859	2.18534503253
461	24	1	26.9633028871	28.4267871454	4.80526802858
462	24	1	26.8630481045	28.5201780482	5.76704958092
463	24	1	26.339471559	29.2530150175	6.07650725179
464	24	1	27.1223337684	29.1361084366	6.60204024246
465	24	1	28.0270687263	28.9059196231	6.37974387662
466	24	2	27.6736585902	29.4138828456	5.60902299641
467	24	2	28.5065704999	29.9187774813	5.73065543345
468	24	2	27.8505811393	30.5971747588	5.76863380829
469	24	2	27.1126138072	31.1619486111	5.96740071567
470	24	2	26.23238872	30.9472184673	6.24204346811
471	24	2	26.3271988057	31.8387971919	5.97911709285
472	24	2	26.9307374349	32.3903560338	5.46030715919
473	24	2	27.6541898518	32.4671271494	4.83306355645
474	24	2	27.8767305656	33.3017606241	5.33694980156
475	24	2	28.0388787576	32.6422278881	6.05232285539
476	24	2	27.8795525319	31.8177482355	5.67280465132
477	24	2	28.683416968	31.3789399306	5.99358498516
478	24	2	29.5308926179	31.5624589592	5.59136727646
479	24	2	29.7319216068	32.4558904736	5.37484236984
480	24	2	28.8005059953	32.3001069074	5.29049151046
481	25	1	7.89141535449	33.5299931	6.13977918722
482	25	1	7.94976594236	32.599872148	5.84813378533
483	25	1	7.14449451608	33.0948301803	5.61036184952
484	25	1	7.25681207594	32.3988521706	4.94002198972
485	25	1	6.37356480621	32.6277546828	5.11681015289
486	25	2	5.67158580309	32.3512171815	5.70651696257
487	25	2	4.79771202265	31.9276534369	5.56376970453
488	25	2	5.15027230956	32.2888056873	4.73240051661
489	25	2	5.71936032273	31.5510644114	4.95284386341
490	25	2	6.35982280385	31.8915766233	4.3577958934
491	25	2	5.53665917334	31.963740307	3.82820100022
492	25	2	5.71039071675	31.0253679958	3.76064952745
493	25	2	5.50966537717	30.506976951	4.51225115647
494	25	2	6.295515269	30.1822001241	4.12874609187
495	25	2	6.85423964353	30.9776090438	4.14730923046
496	25	2	6.77653713575	31.5558997982	3.38700286242
497	25	2	7.45496174119	31.9277114036	4.0108860111
498	25	2	7.70788350046	31.3137425915	4.7450132823
499	25	2	8.40237088025	31.9692880263	4.65556107908
500	25	2	8.65041448619	31.4350922958	5.41739437973
501	26	1	6.07528986176	10.9292166543	6.63392700259
502	26	1	6.10584420936	11.8101205715	6.24819079557
503	26	1	6.12118268823	12.7707821892	6.17562261589
504	26	1	6.64796052903	13.1174401785	5.46497643661
505	26	1	5.78680225851	12.9691091213	5.11240074856
506	26	2	5.60713719341	13.0366929728	4.13793342352
507	26	2	5.25727534089	13.4133374592	3.29293966403
508	26	2	4.90059075363	14.1134401018	3.86956453004
509	26	2	4.94118604611	13.6674948773	4.72419358388
510	26	2	5.76762733246	14.1463639365	4.91120134339
511	26	2	6.1686134153	14.9261960937	4.57003731528
512	26	2	5.63309850846	15.5699021711	4.97817989408
513	26	2	5.60897778199	15.0159029055	5.75819068755
514	26	2	4.94407067033	14.3434250746	5.68230905159
515	26	2	3.97886374572	14.5960798211	5.53557846452
516	26	2	4.20522981284	13.6528889015	5.53365375422
517	26	2	3.29532838375	13.6319066138	5.23603287285
518	26	2	3.87087599248	14.098497712	4.6042840246
519	26	2	4.03786485649	14.7937163828	4.01309579229
520	26	2	3.90380078722	15.3370657929	4.77991548499
521	27	1	34.1858038855	48.8876829784	5.74104343046
522	27	1	34.2070812413	48.2543500335	6.43639170231
523	27	1	34.3956962874	47.9189706271	7.33369544586
524	27	1	34.124895301	48.7869572378	7.49324635679
525	27	1	34.917284455	49.2943394804	7.77182771768
526	27	2	35.4322279268	50.0377602262	7.51052419014
527	27	2	35.5710342045	50.9322028649	7.2369764293
528	27	2	36.2818856441	51.553056783	7.41492253909
529	27	2	36.3515896624	51.2970607964	6.50756910454
530	27	2	36.4806590856	50.4959226251	6.00210888641
531	27	2	36.2276596012	51.1178313089	5.32750291958
532	27	2	35.515708858	51.5943422429	4.92228452349
533	27	2	34.5870913926	51.5314944483	4.77584444642
534	27	2	34.4839838657	51.1417448266	5.63920737094
535	27	2	33.5756902133	51.4114679885	5.26188604827
536	27	2	33.6677452704	51.1043791423	4.35605947944
537	27	2	34.0961417795	50.3033182639	4.68772579618
538	27	2	34.6323008747	50.6310799415	3.94048108699
539	27	2	35.2305268265	51.4024261013	3.86043719358
540	27	2	35.9391749049	52.0331026732	3.92556238497
541	28	1	41.5348771096	60.6413824387	3.78785386952
542	28	1	41.5424672685	61.5455597347	4.19634168052
543	28	1	41.9383546798	62.2210372479	4.73442056025
544	28	1	42.8704378859	62.0696378716	4.62507789228
545	28	1	43.1990708935	61.588694968	3.87817755998
546	28	2	43.5347324162	60.6860251716	3.8651500768
547	28	2	43.3871165255	60.3295576742	2.97010209149
548	28	2	44.0418818596	60.1413504494	2.25701473145
549	28	2	44.8183531329	60.6278338643	2.41411600207
550	28	2	45.2067573378	59.72791771	2.56819810769
551	28	2	44.6698247116	59.1642883489	1.97261072377
552	28	2	44.6636098887	59.8521433231	1.29672681932
553	28	2	44.9399976184	60.8018823205	1.42437285645
554	28	2	45.4496056586	61.5000387677	1.77584473368
555	28	2	46.230745259	61.8155032309	2.15032225616
556	28	2	46.3571932123	61.0361055737	1.52554298112
557	28	2	45.8603975852	60.3063768984	1.73483190199
558	28	2	45.9375744678	60.731247174	2.56454682743
559	28	2	46.6346564334	61.2427674694	2.89578816566
560	28	2	46.7714481044	60.3702791206	3.26529244531
561	29	1	50.7149142292	49.1502417007	1.13686882422
562	29	1	51.5756390672	49.5506057109	1.15778108523
563	29	1	50.8049565037	50.1683202982	1.17401383687
564	29	1	50.1541615843	50.8682024866	1.07015726702
565	29	1	49.4316080338	51.4170237379	1.29872140608
566	29	2	49.1164759259	50.4746007419	1.07047016005
567	29	2	49.7726690957	49.7291392686	1.09693394503
568	29	2	49.8274938792	49.7783981266	2.05474520393
569	29	2	50.7915291325	49.7330778701	2.12118563549
570	29	2	51.708435457	49.8787261894	2.32077126082
571	29	2	51.1788487548	50.221553221	3.03581098069
572	29	2	51.3958574742	51.0466269596	3.55585446407
573	29	2	52.2405241611	50.8820345849	3.93784615567
574	29	2	52.1602916917	50.2214656877	3.29086167922
575	29	2	51.5370895551	50.0726659965	4.0153289776
576	29	2	51.2088780756	50.8322292123	4.53277599144
577	29	2	50.5583593777	50.4400314104	3.89619514355
578	29	2	50.5072733363	49.4773991049	3.6474254056
579	29	2	50.1667706316	49.1020024257	2.82306411318
580	29	2	49.2838592985	48.8100599308	2.88923480351
581	30	1	39.0871493446	11.0695091505	8.48175908737
582	30	1	38.8644258668	11.6211732406	7.72740978232
583	30	1	38.3016706451	11.0537852217	7.2396758349
584	30	1	37.9428630976	10.4050959746	7.89307451052
585	30	1	38.1073548107	10.0612082835	6.98381420718
586	30	2	37.4164610456	10.0288445734	6.31276242918
587	30	2	36.5664971967	9.71651285114	6.68326066773
588	30	2	37.1166338447	9.4162195477	7.42525098311
589	30	2	36.8004383609	8.68868109315	6.86986174226
590	30	2	36.226712251	7.98110473617	7.19685079782
591	30	2	37.083503182	7.5913935086	7.08590804321