# data

48000 atoms
2 atom types
45600 bonds
3 bond types

0.000000 57.000000 xlo xhi
0.000000 90.000000 ylo yhi
0.000000 40.000000 zlo zhi

Atoms

1 1 1 1.415723 53.481207 12.172898
2 1 1 2.000588 54.222114 11.997999
3 1 1 2.323849 54.565607 12.834129
4 1 1 1.862030 55.226383 13.355376
5 1 1 2.418424 55.772360 13.915676
6 1 2 3.130248 55.368825 14.417737
7 1 2 3.642720 54.557372 14.440426
8 1 2 3.886803 53.650399 14.241870
9 1 2 3.970023 52.804323 13.795968
10 1 2 4.660577 52.178545 13.565451
11 1 2 5.546425 52.092847 13.205549
12 1 2 6.342943 52.628625 13.195533
13 1 2 7.269572 52.680946 12.950133
14 1 2 7.994634 53.085079 12.467886
15 1 2 8.662993 53.498313 13.019369
16 1 2 8.541354 54.024803 13.812851
17 1 2 8.301520 54.119685 14.737554
18 1 2 7.831694 54.599103 15.423865
19 1 2 7.789049 54.862911 16.345921
20 1 2 8.171354 55.739749 16.427149
21 2 1 11.906885 3.865320 8.153985
22 2 1 12.825154 4.111510 8.020668
23 2 1 13.409730 4.807881 8.328789
24 2 1 13.843354 5.110639 9.129981
25 2 1 13.326879 5.706938 9.677046
26 2 2 12.393890 5.756438 9.897684
27 2 2 11.652760 6.347123 10.050719
28 2 2 11.695599 7.301394 10.146279
29 2 2 11.988304 7.896894 10.840039
30 2 2 12.252278 8.653929 11.368070
31 2 2 12.229137 9.375593 10.735404
32 2 2 12.327502 10.278947 10.425767
33 2 2 11.586059 10.769028 10.788649
34 2 2 10.667357 11.035347 10.870254
35 2 2 10.260002 11.254155 11.711554
36 2 2 9.448519 11.551641 12.129401
37 2 2 9.300133 12.122021 12.887193
38 2 2 9.562881 12.394025 13.769563
39 2 2 10.387123 12.608568 14.212503
40 2 2 11.083958 11.975272 14.399473
41 3 1 19.845109 68.964721 12.176931
42 3 1 20.563868 68.402990 11.877862
43 3 1 21.009507 67.840063 11.240587
44 3 1 20.845300 66.895802 11.295429
45 3 1 21.059363 66.224290 10.643625
46 3 2 21.540322 65.482191 11.017211
47 3 2 22.290701 64.894181 11.130245
48 3 2 22.541194 64.283597 10.433079
49 3 2 22.980836 63.627239 9.887635
50 3 2 23.730456 63.112285 9.580238
51 3 2 24.491915 63.495845 9.139032
52 3 2 25.202386 63.359781 8.507908
53 3 2 25.893724 63.917567 8.143868
54 3 2 26.110718 64.852573 8.127211
55 3 2 25.473311 65.492385 7.801707
56 3 2 25.301502 65.353796 6.867430
57 3 2 24.603127 65.089218 6.264212
58 3 2 23.976826 64.505743 5.829581
59 3 2 24.137867 63.887290 5.113214
60 3 2 23.594391 63.341396 4.540297
61 4 1 33.454900 60.464619 8.327686
62 4 1 32.751267 59.876253 8.044267
63 4 1 32.214554 59.150580 7.717255
64 4 1 32.416447 58.695756 6.896296
65 4 1 33.079485 58.045113 6.654130
66 4 2 33.425203 57.765563 7.504971
67 4 2 33.895856 58.227272 8.202761
68 4 2 34.066925 59.089159 8.589396
69 4 2 33.572144 59.907684 8.671917
70 4 2 33.109439 60.565435 9.196194
71 4 2 32.597051 61.265469 8.785083
72 4 2 32.326336 61.055420 7.888315
73 4 2 31.663221 61.660278 7.547690
74 4 2 30.963292 61.146758 7.137815
75 4 2 30.828149 61.093733 6.188855
76 4 2 30.817467 61.878128 5.635492
77 4 2 31.308904 62.660174 5.373778
78 4 2 31.428388 63.470186 5.874980
79 4 2 31.813325 64.055462 6.531391
80 4 2 32.331135 64.387317 7.268510
81 5 1 12.352636 1.769645 15.070627
82 5 1 13.143498 1.226253 15.041268
83 5 1 13.883021 1.295110 14.433021
84 5 1 13.698694 1.755121 13.610821
85 5 1 13.344223 1.377788 12.802384
86 5 2 12.794810 1.985979 12.302536
87 5 2 13.155207 2.588818 11.648090
88 5 2 14.064387 2.409746 11.397242
89 5 2 14.771677 2.706022 10.819694
90 5 2 15.313916 3.497609 10.788604
91 5 2 16.048172 3.627200 10.183894
92 5 2 16.084597 3.348180 9.266059
93 5 2 16.881497 3.109009 8.787157
94 5 2 17.795863 3.151033 9.076585
95 5 2 18.361382 3.633982 9.683668
96 5 2 18.961230 3.538998 10.427146
97 5 2 19.877050 3.401204 10.174388
98 5 2 20.473939 3.080485 10.854434
99 5 2 21.261535 2.585449 10.617301
100 5 2 21.822905 1.860417 10.901541
101 6 1 38.202693 48.112696 19.582779
102 6 1 39.033739 47.650593 19.714778
103 6 1 39.267668 47.336259 20.591175
104 6 1 39.904583 47.073033 21.259495
105 6 1 40.308562 46.354709 21.751847
106 6 2 40.683869 46.627426 22.592305
107 6 2 40.806306 47.074160 23.433161
108 6 2 41.495358 46.989600 24.096227
109 6 2 41.896132 47.836405 24.305755
110 6 2 42.165899 48.497764 23.664327
111 6 2 42.200550 49.198351 23.008905
112 6 2 42.767928 49.970440 23.068565
113 6 2 42.675071 50.872592 23.383366
114 6 2 43.003848 51.485880 24.044715
115 6 2 43.610143 51.898431 24.664237
116 6 2 43.776462 52.831352 24.817849
117 6 2 43.211702 53.335286 25.408353
118 6 2 42.694686 53.199458 26.205752
119 6 2 42.137217 52.725672 26.827328
120 6 2 41.848496 52.503522 27.715522
121 7 1 34.683042 57.535137 12.546053
122 7 1 34.800102 56.669862 12.945046
123 7 1 34.434803 56.209208 13.703962
124 7 1 33.751660 55.582688 13.454187
125 7 1 33.897501 55.121529 12.624932
126 7 2 34.569618 55.518560 12.066161
127 7 2 34.224122 56.289013 11.609396
128 7 2 33.335293 56.625710 11.744374
129 7 2 33.050235 57.274168 12.392328
130 7 2 33.056255 58.036097 12.976305
131 7 2 33.494390 58.863625 12.764562
132 7 2 34.211689 59.365672 12.370821
133 7 2 34.736214 59.961273 11.830698
134 7 2 35.541759 59.887866 11.313678
135 7 2 35.756234 59.750916 10.388019
136 7 2 35.360682 60.269991 9.683960
137 7 2 34.902372 60.805334 9.032070
138 7 2 35.216014 61.639026 8.674040
139 7 2 35.977343 62.073686 8.282827
140 7 2 35.767346 62.580774 7.495195
141 8 1 5.344689 28.697820 13.540924
142 8 1 4.978605 28.584509 12.660729
143 8 1 4.197191 28.321950 12.168738
144 8 1 4.033227 28.999723 11.508935
145 8 1 4.663424 29.332336 10.865648
146 8 2 4.443253 29.954269 10.168278
147 8 2 4.589678 30.795537 9.729612
148 8 2 5.103973 31.492606 10.143370
149 8 2 5.287230 31.283508 11.062225
150 8 2 5.918344 30.824866 11.621638
151 8 2 6.656686 30.396179 12.060590
152 8 2 7.231563 30.206813 12.805746
153 8 2 7.846753 30.627800 13.410652
154 8 2 8.508778 31.274581 13.665597
155 8 2 9.149803 31.982187 13.765506
156 8 2 9.689128 32.775165 13.809236
157 8 2 10.373254 33.330915 13.428822
158 8 2 11.031384 33.861998 13.883152
159 8 2 11.644765 34.026443 14.603098
160 8 2 11.981118 33.399420 15.247542
161 9 1 25.374788 49.195129 14.179490
162 9 1 25.908694 49.658214 13.529801
163 9 1 25.473232 49.693669 12.674982
164 9 1 24.955014 49.901818 11.894133
165 9 1 24.152343 50.422172 11.975069
166 9 2 23.249540 50.625862 11.720007
167 9 2 22.561815 51.228443 12.012465
168 9 2 22.293793 51.738597 12.780258
169 9 2 21.818936 52.554037 12.956807
170 9 2 21.293203 52.722112 13.742272
171 9 2 21.372374 52.099405 14.468611
172 9 2 21.217064 51.250289 14.888708
173 9 2 21.684410 50.938625 15.667202
174 9 2 21.448010 50.981148 16.596668
175 9 2 20.772875 50.375468 16.911223
176 9 2 21.082832 49.492315 17.124688
177 9 2 20.773717 49.212869 17.989533
178 9 2 20.598785 49.007858 18.910929
179 9 2 21.184461 48.743552 19.624179
180 9 2 22.030361 48.442131 19.963589
181 10 1 16.863760 70.224838 5.956390
182 10 1 17.347765 70.939195 5.535637
183 10 1 18.092462 71.497713 5.300939
184 10 1 18.309212 72.356501 5.671214
185 10 1 19.165697 72.606839 5.317144
186 10 2 19.821372 73.125720 5.788794
187 10 2 20.015613 73.436345 6.676139
188 10 2 20.500406 73.238566 7.480788
189 10 2 20.929445 73.660257 8.228921
190 10 2 20.211193 73.987059 8.775651
191 10 2 19.373259 74.234005 8.377549
192 10 2 18.603780 74.422543 8.919726
193 10 2 18.428956 73.804779 9.633452
194 10 2 18.045697 73.606150 10.490924
195 10 2 18.506919 73.239006 11.248605
196 10 2 18.351499 72.864135 12.118614
197 10 2 19.125500 72.525309 12.574376
198 10 2 19.768068 71.812313 12.555859
199 10 2 19.587611 70.999328 12.078271
200 10 2 18.994077 70.265044 11.904647
201 11 1 41.262565 66.946579 1.587838
202 11 1 40.816694 67.640421 1.096531
203 11 1 40.264414 68.299915 1.522739
204 11 1 39.601845 68.871149 1.127397
205 11 1 39.269889 69.669512 1.544556
206 11 2 38.526582 70.166680 1.195388
207 11 2 37.887321 70.845607 1.423432
208 11 2 37.095933 71.080055 1.913676
209 11 2 36.626354 71.625093 2.549308
210 11 2 35.993798 72.013896 3.157836
211 11 2 35.725779 72.554126 3.904774
212 11 2 36.116489 73.214263 4.481979
213 11 2 36.935078 73.138235 4.977693
214 11 2 37.431747 73.600554 5.656796
215 11 2 38.220241 73.198872 6.028990
216 11 2 38.277749 72.240658 6.018058
217 11 2 37.733029 71.669797 6.564864
218 11 2 37.304190 71.791145 7.415141
219 11 2 36.421918 71.978824 7.743734
220 11 2 35.829564 72.305452 7.062537
221 12 1 53.110073 5.863354 10.576114
222 12 1 52.464914 5.363037 10.071087
223 12 1 52.764096 4.546304 9.664839
224 12 1 52.370753 3.969766 9.005684
225 12 1 51.774796 3.399257 8.514814
226 12 2 52.120662 2.794527 7.854300
227 12 2 51.655144 2.257381 7.209034
228 12 2 51.024317 1.624488 7.559894
229 12 2 50.659765 0.987475 8.178696
230 12 2 50.535392 0.259976 8.792599
231 12 2 50.524406 89.530068 9.416068
232 12 2 49.778084 89.400984 10.005934
233 12 2 49.446275 89.218181 10.888026
234 12 2 48.922964 89.291734 11.689484
235 12 2 48.356619 88.713957 12.206231
236 12 2 47.714794 89.059359 12.831017
237 12 2 47.863128 88.645106 13.684242
238 12 2 48.441838 88.440335 14.422322
239 12 2 49.238396 87.984679 14.140411
240 12 2 49.139761 87.077051 14.437197
241 13 1 38.383202 70.358290 11.067275
242 13 1 39.333208 70.349521 11.205154
243 13 1 39.846169 69.760699 11.763509
244 13 1 40.607453 70.032780 12.281214
245 13 1 41.378415 70.413661 11.854426
246 13 2 41.931791 69.870892 11.288054
247 13 2 42.425893 70.072482 10.490041
248 13 2 42.865755 69.691878 9.726325
249 13 2 42.799672 69.213590 8.896582
250 13 2 42.964551 69.322566 7.957146
251 13 2 42.938452 69.265359 6.999208
252 13 2 42.460037 68.654812 6.433566
253 13 2 42.142543 67.840715 6.831112
254 13 2 41.931937 66.946638 7.110168
255 13 2 41.351270 66.254412 6.785748
256 13 2 41.198950 65.979496 5.878654
257 13 2 41.555627 65.454185 5.158633
258 13 2 41.763918 66.011633 4.405329
259 13 2 41.882338 65.590057 3.551017
260 13 2 41.156127 65.107179 3.149710
261 14 1 4.069136 25.765988 7.953055
262 14 1 4.887608 25.367370 8.257698
263 14 1 5.739309 25.142997 7.875780
264 14 1 6.418704 25.793486 8.067843
265 14 1 7.338718 25.926665 7.828185
266 14 2 7.950282 25.186703 7.834975
267 14 2 8.480256 24.649177 8.428097
268 14 2 8.950037 23.818759 8.321734
269 14 2 8.749503 23.329289 7.520606
270 14 2 8.218425 22.725842 6.995813
271 14 2 8.183391 21.927467 6.463864
272 14 2 8.987385 21.724673 5.980057
273 14 2 9.539661 22.329361 5.479115
274 14 2 10.143555 23.062657 5.340591
275 14 2 10.943384 22.805506 4.876104
276 14 2 11.467946 23.436933 4.378374
277 14 2 11.635945 24.375195 4.492564
278 14 2 12.242425 25.117776 4.541109
279 14 2 12.869424 25.602055 5.083277
280 14 2 13.514053 26.211376 4.716149
281 15 1 42.349383 77.780002 17.609012
282 15 1 42.985062 77.068639 17.501892
283 15 1 42.834932 76.143157 17.708157
284 15 1 43.483079 75.642444 17.207365
285 15 1 44.300531 75.139357 17.223984
286 15 2 45.213113 75.366060 17.030595
287 15 2 45.853505 75.222929 16.329873
288 15 2 46.377143 75.734135 15.708526
289 15 2 46.132658 76.656806 15.811018
290 15 2 45.696751 76.967908 16.607762
291 15 2 44.970706 77.519399 16.307237
292 15 2 45.253096 78.225126 15.720887
293 15 2 45.993884 78.801003 15.517913
294 15 2 46.685497 78.318957 15.058672
295 15 2 47.145676 77.621992 15.532038
296 15 2 46.777643 77.087139 16.239204
297 15 2 45.821099 77.043234 16.307728
298 15 2 45.295772 77.598000 16.888991
299 15 2 44.930690 77.063632 17.598051
300 15 2 44.264405 76.560987 18.072405
301 16 1 37.043055 79.853361 12.771288
302 16 1 36.274632 80.247076 12.351628
303 16 1 35.802145 81.029875 12.644174
304 16 1 36.052874 81.209037 13.553369
305 16 1 36.246033 82.078916 13.910582
306 16 2 35.939924 82.984098 14.003005
307 16 2 35.665653 83.815763 13.609675
308 16 2 34.917730 84.125385 13.093587
309 16 2 34.307136 83.732175 12.465766
310 16 2 33.404155 83.881898 12.176269
311 16 2 32.792645 84.486574 11.749627
312 16 2 32.096206 84.854973 11.201124
313 16 2 31.371646 84.510575 10.673865
314 16 2 31.441080 84.180364 9.775122
315 16 2 30.896194 83.953381 9.018036
316 16 2 30.915298 83.190447 8.435656
317 16 2 31.649044 82.573593 8.487686
318 16 2 32.498235 82.157093 8.652013
319 16 2 33.428539 82.322769 8.482646
320 16 2 34.022813 82.922561 8.939470
321 17 1 36.136191 31.381618 19.399630
322 17 1 36.716061 32.117835 19.607802
323 17 1 36.310633 32.935690 19.905027
324 17 1 36.841748 33.730642 19.992024
325 17 1 36.460964 34.179485 20.750407
326 17 2 35.825595 34.197105 21.469847
327 17 2 35.504700 34.826822 22.119527
328 17 2 35.252850 35.275488 22.930002
329 17 2 34.995566 36.062018 23.416597
330 17 2 34.293695 36.169665 24.062653
331 17 2 33.566580 36.776152 23.904297
332 17 2 32.805134 36.840768 24.485353
333 17 2 33.017893 37.023982 25.403376
334 17 2 33.545152 36.404475 25.913092
335 17 2 33.648427 36.189040 26.842888
336 17 2 34.534257 35.980818 27.148746
337 17 2 35.478816 36.139383 27.214055
338 17 2 36.274541 35.764513 27.598623
339 17 2 37.130235 35.437845 27.311089
340 17 2 37.565098 34.752274 26.798755
341 18 1 19.051268 16.194892 19.515058
342 18 1 19.640589 16.916428 19.283354
343 18 1 20.208581 16.998089 18.513733
344 18 1 20.818466 16.869131 17.783658
345 18 1 21.493169 17.089213 17.137175
346 18 2 21.276917 17.320489 16.230893
347 18 2 20.595999 17.167728 15.571641
348 18 2 20.089346 17.979321 15.650496
349 18 2 19.439462 17.972233 16.357038
350 18 2 18.675123 17.393852 16.410523
351 18 2 17.968211 17.510683 15.771597
352 18 2 17.050929 17.782611 15.850651
353 18 2 16.398550 17.078888 15.878480
354 18 2 16.101213 16.810668 15.005984
355 18 2 16.404020 16.283591 14.262952
356 18 2 15.946172 15.696780 13.656628
357 18 2 15.403406 14.916778 13.793014
358 18 2 15.027368 14.041350 13.675448
359 18 2 14.216770 13.926328 14.176747
360 18 2 13.605937 13.507085 14.787254
361 19 1 29.324547 12.962585 6.840761
362 19 1 30.034088 13.065366 7.479188
363 19 1 30.926849 13.240658 7.785536
364 19 1 31.640967 12.604297 7.867275
365 19 1 32.109029 11.839065 8.209237
366 19 2 32.243563 10.888549 8.213623
367 19 2 32.738977 10.078376 8.072966
368 19 2 32.223010 9.269208 8.047936
369 19 2 31.879493 8.461825 7.658413
370 19 2 31.007974 8.081317 7.789824
371 19 2 30.233679 7.601745 8.093265
372 19 2 30.368744 6.900979 8.735360
373 19 2 30.272248 6.318437 9.492283
374 19 2 29.750336 6.455799 10.286223
375 19 2 29.884354 6.370380 11.232976
376 19 2 30.315863 7.040592 11.767969
377 19 2 30.134464 7.845544 12.258628
378 19 2 30.159228 7.805510 13.217473
379 19 2 30.039586 8.554078 13.806483
380 19 2 29.455974 9.119027 14.318175
381 20 1 23.037820 5.462287 5.479503
382 20 1 22.612111 4.891850 6.123688
383 20 1 22.993628 4.489683 6.907465
384 20 1 23.592652 3.991142 7.468024
385 20 1 23.472658 4.354873 8.348309
386 20 2 22.656357 4.120648 8.795960
387 20 2 22.055616 3.445433 8.472243
388 20 2 21.540165 2.890749 9.062359
389 20 2 20.938619 2.222393 8.726141
390 20 2 19.981276 2.280740 8.767258
391 20 2 19.111855 2.154294 9.154193
392 20 2 18.915128 1.505536 9.833906
393 20 2 18.928434 1.040628 10.673718
394 20 2 18.685116 1.088718 11.601125
395 20 2 18.139300 0.538663 12.167803
396 20 2 17.831118 0.166999 12.997557
397 20 2 18.488437 89.883655 13.637282
398 20 2 18.679417 0.571242 14.279427
399 20 2 18.361753 1.338155 14.761646
400 20 2 18.509620 1.977493 15.462347
401 21 1 39.211034 23.460373 13.082015
402 21 1 38.725210 23.095334 12.338831
403 21 1 38.006350 22.749472 11.804772
404 21 1 38.374191 22.487682 10.957565
405 21 1 39.278832 22.166398 10.957766
406 21 2 39.929018 21.965659 11.634938
407 21 2 40.745209 21.602830 11.986772
408 21 2 41.356869 22.072175 12.558775
409 21 2 41.908803 21.964487 13.336832
410 21 2 42.373724 21.139750 13.495761
411 21 2 42.698084 20.411694 14.030854
412 21 2 42.461019 20.649959 14.930092
413 21 2 41.975095 20.859252 15.731138
414 21 2 41.418388 21.590832 16.007667
415 21 2 40.894155 21.601886 16.811818
416 21 2 40.097588 21.422687 17.316762
417 21 2 39.456520 21.644356 17.996096
418 21 2 38.633061 21.175878 18.151157
419 21 2 37.771807 21.466196 18.460279
420 21 2 37.520976 22.258998 18.940018
421 22 1 27.519986 6.521238 9.761922
422 22 1 27.438412 7.262669 10.366261
423 22 1 27.742764 8.092603 9.991854
424 22 1 28.131810 8.481322 10.778709
425 22 1 27.821372 9.022599 11.508263
426 22 2 28.466510 9.349533 12.139540
427 22 2 28.349888 9.171040 13.075563
428 22 2 27.806865 9.678981 13.682788
429 22 2 26.909851 9.951226 13.889789
430 22 2 26.498014 9.753700 14.734167
431 22 2 25.613644 9.600514 15.074791
432 22 2 25.194891 8.972024 15.667451
433 22 2 24.688138 8.456923 16.299488
434 22 2 24.154059 7.822598 16.783214
435 22 2 24.158937 7.659483 17.729242
436 22 2 24.774410 6.992293 18.041734
437 22 2 25.411785 6.339770 18.341011
438 22 2 25.405130 5.643147 17.680503
439 22 2 24.891527 5.346244 16.925745
440 22 2 24.295736 4.776211 16.434119
441 23 1 44.785471 58.583390 5.151743
442 23 1 45.036841 59.497509 5.302737
443 23 1 44.846335 60.013754 6.089375
444 23 1 44.958937 60.612877 6.830976
445 23 1 45.195363 61.197622 7.554700
446 23 2 45.549211 60.673650 8.277089
447 23 2 46.401791 60.781034 8.705080
448 23 2 47.281587 60.731455 8.324160
449 23 2 47.991635 60.888809 7.697525
450 23 2 47.663720 60.336493 6.984070
451 23 2 47.473410 59.846603 6.180708
452 23 2 46.803406 60.166122 5.571937
453 23 2 46.269401 60.889756 5.907783
454 23 2 46.793155 61.393287 6.535268
455 23 2 47.466664 60.888905 6.997420
456 23 2 48.343484 60.571619 7.225708
457 23 2 48.837005 60.400581 8.031179
458 23 2 48.938379 60.852746 8.871934
459 23 2 49.279688 61.654654 9.274491
460 23 2 49.275709 62.075859 10.137145
461 24 1 1.400902 61.439491 13.518637
462 24 1 0.786998 61.636173 12.807275
463 24 1 56.878893 61.944517 12.850515
464 24 1 56.225659 61.264646 12.669790
465 24 1 56.143986 60.310420 12.735982
466 24 2 56.000809 59.396425 12.479634
467 24 2 56.470433 59.107510 11.693770
468 24 2 0.287037 58.826390 11.274569
469 24 2 0.754318 58.161117 11.785118
470 24 2 1.541694 57.867486 11.320985
471 24 2 2.114446 57.319877 10.779063
472 24 2 2.889488 56.754165 10.808747
473 24 2 3.625060 56.412169 10.295355
474 24 2 3.638113 55.810786 9.547178
475 24 2 3.217954 55.161457 8.978462
476 24 2 2.280080 55.098935 8.783316
477 24 2 1.691416 54.902282 8.050921
478 24 2 1.063603 55.282487 7.432136
479 24 2 0.362381 55.674213 7.957910
480 24 2 56.672900 56.336017 8.048639
481 25 1 44.012961 20.189574 6.346990
482 25 1 44.576774 19.463125 6.071334
483 25 1 44.690437 18.686899 5.518022
484 25 1 44.477634 17.758964 5.394524
485 25 1 44.078731 17.163898 4.755484
486 25 2 43.717275 16.274552 4.751902
487 25 2 43.858831 15.350949 4.531627
488 25 2 43.116713 14.792219 4.289384
489 25 2 42.371011 14.199259 4.407396
490 25 2 42.000028 13.486345 3.882301
491 25 2 42.523029 12.887173 3.344656
492 25 2 42.812364 12.872188 2.429418
493 25 2 42.716985 13.156728 1.517530
494 25 2 42.149144 13.930705 1.506764
495 25 2 41.799473 14.779398 1.787923
496 25 2 41.011176 15.025240 2.277566
497 25 2 40.217514 15.565332 2.276388
498 25 2 39.527431 15.678981 2.934011
499 25 2 38.836059 15.043467 2.734694
500 25 2 38.323901 14.604503 3.417779
501 26 1 10.173808 73.850627 13.557616
502 26 1 9.579309 73.261248 14.027513
503 26 1 9.036245 72.739767 14.623113
504 26 1 8.223725 72.304185 14.355383
505 26 1 7.808078 71.931379 13.574451
506 26 2 6.850185 71.954318 13.515176
507 26 2 6.317750 71.398160 14.088588
508 26 2 6.688948 70.987527 14.872931
509 26 2 6.715988 71.553761 15.647688
510 26 2 6.845761 72.504921 15.654968
511 26 2 6.877959 72.974493 16.491667
512 26 2 7.501937 73.676702 16.689538
513 26 2 8.206003 74.325170 16.762889
514 26 2 8.731136 74.439536 17.558348
515 26 2 8.121587 74.535977 18.293705
516 26 2 8.207374 73.974800 19.067864
517 26 2 8.957093 73.415135 19.283029
518 26 2 9.703489 72.819534 19.184268
519 26 2 10.535593 72.340788 19.182264
520 26 2 11.342090 72.294995 18.663549
521 27 1 3.109603 8.514507 6.676614
522 27 1 3.347725 7.588917 6.586161
523 27 1 3.575876 7.268913 5.710293
524 27 1 4.381519 7.149349 5.202117
525 27 1 5.018071 7.834382 4.985021
526 27 2 5.264603 8.716229 4.696632
527 27 2 6.201266 8.903543 4.792423
528 27 2 6.615571 9.070845 5.642106
529 27 2 6.474170 8.838361 6.562734
530 27 2 6.049982 9.050487 7.397400
531 27 2 6.379306 8.855666 8.277849
532 27 2 6.953577 9.318027 8.892694
533 27 2 7.809423 9.673373 8.641981
534 27 2 8.343914 10.429452 8.388476
535 27 2 8.206557 11.358251 8.188315
536 27 2 8.268199 12.284286 8.433792
537 27 2 7.422590 12.602967 8.757811
538 27 2 7.020036 13.291080 9.292648
539 27 2 7.591344 13.972104 9.655158
540 27 2 7.367209 14.637960 10.309375
541 28 1 40.691107 12.325005 9.627550
542 28 1 39.865361 12.217111 10.105150
543 28 1 39.570898 12.353787 11.008594
544 28 1 39.738342 12.903558 11.777564
545 28 1 39.811912 13.829384 12.020533
546 28 2 40.573302 14.400474 11.895067
547 28 2 40.910966 15.066527 12.498356
548 28 2 40.509632 15.715641 13.080750
549 28 2 40.892582 15.529312 13.941117
550 28 2 41.666260 15.775511 14.453375
551 28 2 42.483745 15.853209 13.956100
552 28 2 42.632852 16.517041 13.278831
553 28 2 43.034093 17.370666 13.457522
554 28 2 43.313691 17.723104 12.609458
555 28 2 42.851400 18.179488 11.902634
556 28 2 42.091216 18.482086 11.400483
557 28 2 41.408800 17.996505 10.931314
558 28 2 40.940746 17.401387 11.521534
559 28 2 40.936935 17.213655 12.462991
560 28 2 40.428778 17.810702 13.016987
561 29 1 0.783526 10.441535 5.882538
562 29 1 56.981102 10.647821 5.397602
563 29 1 56.273035 10.022202 5.227774
564 29 1 55.694685 9.631161 4.568836
565 29 1 55.178530 8.871739 4.288727
566 29 2 55.178170 7.964468 3.974946
567 29 2 55.324565 7.154520 4.469064
568 29 2 55.175246 7.033186 5.409587
569 29 2 54.638588 7.452582 6.086126
570 29 2 55.071838 7.719723 6.900086
571 29 2 55.694839 7.494052 7.594738
572 29 2 55.999205 7.666496 8.488732
573 29 2 56.346144 7.044205 9.132150
574 29 2 55.765217 6.746314 9.835986
575 29 2 55.957404 7.091123 10.711069
576 29 2 55.693180 7.999689 10.873220
577 29 2 56.369546 8.674268 10.968471
578 29 2 56.700467 8.913096 11.837408
579 29 2 0.403127 9.563731 11.904802
580 29 2 0.792003 9.701954 11.038044
581 30 1 45.298547 77.081369 11.921393
582 30 1 45.472124 76.201285 11.579452
583 30 1 46.125675 75.711849 12.084351
584 30 1 46.983294 76.143179 12.091057
585 30 1 47.608187 75.707112 12.674971
586 30 2 48.172272 75.048600 12.262939
587 30 2 48.469299 74.844800 11.373085
588 30 2 47.805315 75.021046 10.702517
589 30 2 46.928198 75.134649 10.329207
590 30 2 46.267981 75.193514 9.634766
591 30 2 46.087233 75.737835 8.864931
592 30 2 46.168068 76.688413 8.757848
593 30 2 46.333520 77.626204 8.879391
594 30 2 45.987191 78.002685 9.691745
595 30 2 45.773334 78.686731 10.330452
596 30 2 45.255759 78.950223 11.094839
597 30 2 44.689333 79.645023 11.438372
598 30 2 44.898103 80.554141 11.211394
599 30 2 45.406625 81.249660 10.788003
600 30 2 46.020073 81.764146 11.317707
601 31 1 0.596316 47.803236 5.759809
602 31 1 0.203274 48.180195 6.550391
603 31 1 0.030516 49.100210 6.763290
604 31 1 56.507372 49.688407 6.213794
605 31 1 56.485760 50.560379 5.812799
606 31 2 55.864418 51.241078 5.544130
607 31 2 55.526940 51.365057 4.653997
608 31 2 56.204456 50.986829 4.088740
609 31 2 56.112354 50.574935 3.226499
610 31 2 55.649804 50.025105 2.589841
611 31 2 56.339803 49.457449 2.238745
612 31 2 0.208481 49.203911 1.918251
613 31 2 0.886841 49.285113 2.592665
614 31 2 0.810985 48.707195 3.355461
615 31 2 0.832100 49.091165 4.235075
616 31 2 0.937393 48.987538 5.183640
617 31 2 1.243883 48.486684 5.943119
618 31 2 1.880928 48.559688 6.657573
619 31 2 2.208364 49.419059 6.933012
620 31 2 1.692123 50.156685 7.266184
621 32 1 52.116769 12.464121 17.583685
622 32 1 52.686890 11.907893 17.047800
623 32 1 52.734961 11.731190 16.105428
624 32 1 53.065216 11.736740 15.204040
625 32 1 53.643790 12.226894 14.615312
626 32 2 54.315827 12.909689 14.676610
627 32 2 54.846362 12.841082 15.473745
628 32 2 55.454499 13.306076 16.053013
629 32 2 55.919603 13.902398 16.644348
630 32 2 56.135518 14.508331 17.356967
631 32 2 55.454633 15.111946 17.662984
632 32 2 55.660499 15.995920 17.350239
633 32 2 55.435042 16.327037 16.477811
634 32 2 54.968966 16.887214 15.852851
635 32 2 55.195688 16.589715 14.968719
636 32 2 55.254612 15.952609 14.253020
637 32 2 55.847504 16.111713 13.514938
638 32 2 56.671560 15.753113 13.177392
639 32 2 0.388106 15.733113 12.538829
640 32 2 0.742993 15.101635 11.908837
641 33 1 55.612872 64.935513 7.770263
642 33 1 55.670189 65.860654 8.020118
643 33 1 56.343131 66.536672 8.128508
644 33 1 0.011442 66.870436 8.731470
645 33 1 0.216131 66.395109 9.540028
646 33 2 56.846959 66.764907 10.345361
647 33 2 56.317239 66.162319 10.872510
648 33 2 56.005531 65.320309 10.532720
649 33 2 55.469527 65.057482 9.780908
650 33 2 54.717799 65.350954 9.260929
651 33 2 54.231222 64.584419 8.949051
652 33 2 53.792066 63.732283 8.898018
653 33 2 53.616795 62.855138 8.549454
654 33 2 54.309512 62.218971 8.741896
655 33 2 54.247773 61.284593 8.530410
656 33 2 54.383907 60.850523 7.685039
657 33 2 53.982294 61.275618 6.923724
658 33 2 54.117896 62.110275 6.469234
659 33 2 53.883220 62.833730 5.883454
660 33 2 53.209700 63.290524 5.374229
661 34 1 48.877834 41.037022 15.805812
662 34 1 48.466116 40.806665 16.641889
663 34 1 48.857279 40.122818 17.190472
664 34 1 48.875738 39.556814 17.965649
665 34 1 49.238052 38.679952 17.819221
666 34 2 49.904270 38.295535 17.244785
667 34 2 49.651996 38.204620 16.322997
668 34 2 49.981610 38.931865 15.790016
669 34 2 50.723952 38.867909 15.184674
670 34 2 51.308768 39.459237 14.705173
671 34 2 52.088334 40.018892 14.730924
672 34 2 52.772535 40.099949 15.399430
673 34 2 52.618714 40.193722 16.342375
674 34 2 52.062076 40.276035 17.120179
675 34 2 51.381315 39.813647 17.614510
676 34 2 50.749541 40.215230 18.215503
677 34 2 50.791870 40.140081 19.171620
678 34 2 51.562121 39.610683 19.390826
679 34 2 52.495538 39.489410 19.579576
680 34 2 52.630856 40.275774 20.113355
681 35 1 20.939061 75.105173 13.718852
682 35 1 21.150719 75.864799 13.171340
683 35 1 21.426579 76.582935 12.597073
684 35 1 20.883047 77.153035 12.048294
685 35 1 20.156492 77.703448 11.747023
686 35 2 20.099339 78.448260 11.144040
687 35 2 19.249590 78.885226 11.051373
688 35 2 19.374592 79.780955 10.729435
689 35 2 19.471439 80.556558 10.172065
690 35 2 20.188528 80.992116 9.705511
691 35 2 20.635821 81.650692 10.241988
692 35 2 21.168874 82.303876 10.701122
693 35 2 21.266721 82.478947 11.639938
694 35 2 20.762935 83.052150 12.222379
695 35 2 20.630987 83.992599 12.081858
696 35 2 20.831290 84.433263 12.910891
697 35 2 21.645651 84.715570 13.333643
698 35 2 22.312494 84.581264 12.656235
699 35 2 22.661087 84.188791 11.852464
700 35 2 23.375003 84.473876 11.277442
701 36 1 54.286885 63.940185 1.332073
702 36 1 55.066153 63.865448 1.887730
703 36 1 54.931286 64.320219 2.722352
704 36 1 55.080406 65.154813 3.172704
705 36 1 55.915053 65.620576 3.083099
706 36 2 56.245761 66.494785 2.864032
707 36 2 55.784981 67.261733 2.516076
708 36 2 55.090317 67.891987 2.720580
709 36 2 54.211166 68.010144 2.353522
710 36 2 53.400293 67.874849 2.849285
711 36 2 52.446195 67.928869 2.940823
712 36 2 51.744242 68.181433 2.336611
713 36 2 51.262444 67.684680 1.671249
714 36 2 50.750888 67.109887 1.097208
715 36 2 49.805964 66.951499 1.157469
716 36 2 49.238263 67.517010 1.686160
717 36 2 48.658329 67.033040 2.278654
718 36 2 48.102466 67.065214 3.060691
719 36 2 47.147045 67.131794 3.126554
720 36 2 46.718750 67.168203 2.268162
721 37 1 56.530819 57.444864 11.971197
722 37 1 56.940740 57.612126 11.119382
723 37 1 56.978459 58.209165 10.368568
724 37 1 56.509405 59.043437 10.443256
725 37 1 56.261573 59.867111 10.016945
726 37 2 56.278092 60.743243 9.624873
727 37 2 55.473965 61.265140 9.573861
728 37 2 55.412254 61.854653 10.329022
729 37 2 54.818310 62.155834 11.020483
730 37 2 54.711471 61.552666 11.759654
731 37 2 54.229489 60.836353 12.179403
732 37 2 54.168775 59.938512 12.513762
733 37 2 53.341919 59.644002 12.902571
734 37 2 53.006402 58.744544 12.900995
735 37 2 52.316440 58.169950 13.240694
736 37 2 51.623909 57.663602 13.671522
737 37 2 51.227384 56.925167 14.139582
738 37 2 50.657091 56.984111 14.909577
739 37 2 49.916547 57.593974 14.874076
740 37 2 49.468090 58.204691 14.284575
741 38 1 33.493396 49.105126 14.598201
742 38 1 34.130623 48.394372 14.700038
743 38 1 33.997444 47.664088 15.308764
744 38 1 33.803100 47.804463 16.238348
745 38 1 34.177260 47.165778 16.849646
746 38 2 34.611725 46.891876 17.660706
747 38 2 34.573898 46.618840 18.580282
748 38 2 33.801948 46.190108 18.956954
749 38 2 33.394230 45.356101 18.712416
750 38 2 32.844136 44.586085 18.873881
751 38 2 31.949863 44.744603 18.562838
752 38 2 31.628637 45.623189 18.347198
753 38 2 31.033480 46.299172 18.014880
754 38 2 30.599200 46.753595 18.740484
755 38 2 30.741696 47.625606 19.115839
756 38 2 30.046268 48.285095 19.171118
757 38 2 29.784118 48.913157 18.494055
758 38 2 29.342276 48.432345 17.790353
759 38 2 29.232711 47.725511 17.150055
760 38 2 29.637993 47.224733 16.438319
761 39 1 56.242738 42.779439 19.711229
762 39 1 56.798073 42.128321 20.146255
763 39 1 56.315686 41.330337 20.374563
764 39 1 56.047945 40.624512 20.967628
765 39 1 55.521314 40.774110 21.756222
766 39 2 54.592629 40.578518 21.900747
767 39 2 53.761647 40.902183 22.256148
768 39 2 53.094788 41.503705 21.916927
769 39 2 52.518139 42.214259 21.626774
770 39 2 52.467927 42.934808 22.259141
771 39 2 52.953802 42.644417 23.034510
772 39 2 53.474275 42.228600 23.725744
773 39 2 54.142843 41.587101 23.976932
774 39 2 54.002446 41.069927 24.773436
775 39 2 53.612811 41.589803 25.480199
776 39 2 54.017113 42.460428 25.467897
777 39 2 53.636460 43.127428 24.891864
778 39 2 52.979477 43.824443 24.827490
779 39 2 52.183987 44.343985 24.690118
780 39 2 52.108162 44.844438 25.505837
781 40 1 1.014010 71.215168 16.547296
782 40 1 0.244748 70.813904 16.136414
783 40 1 0.129067 70.140313 15.462254
784 40 1 56.648436 69.868717 14.676869
785 40 1 56.426465 70.596998 14.092117
786 40 2 55.836073 70.291435 13.399536