# data

48000 atoms
2 atom types
45600 bonds
3 bond types

0.000000 57.000000 xlo xhi
0.000000 90.000000 ylo yhi
0.000000 40.000000 zlo zhi

Atoms

1 1 1 43.070818 37.205902 9.486638
2 1 1 43.815897 37.671820 9.100143
3 1 1 44.736497 37.406618 9.038790
4 1 1 45.355448 37.932945 8.527440
5 1 1 45.369098 38.813022 8.144193
6 1 2 46.210703 39.260997 8.256529
7 1 2 47.004363 39.403467 7.735563
8 1 2 47.641700 40.050254 7.424006
9 1 2 47.923399 40.008180 6.507231
10 1 2 48.795044 40.031136 6.105599
11 1 2 49.383682 39.898196 5.358986
12 1 2 49.652108 39.157076 4.810999
13 1 2 49.268710 38.734206 4.039127
14 1 2 49.462763 38.300826 3.204786
15 1 2 49.185339 37.635536 2.570731
16 1 2 49.828951 36.954062 2.363469
17 1 2 50.271810 36.417481 3.024950
18 1 2 50.567263 36.141091 3.895534
19 1 2 51.177328 36.664862 4.420018
20 1 2 51.682870 37.405388 4.763017
21 2 1 45.791031 81.559678 15.950995
22 2 1 46.331459 81.035189 15.355640
23 2 1 46.985871 80.805204 14.691974
24 2 1 47.248979 80.644606 13.782808
25 2 1 47.374729 80.240318 12.921217
26 2 2 47.699119 79.472127 12.445557
27 2 2 47.630036 78.752208 11.814253
28 2 2 47.714539 78.370511 10.937460
29 2 2 47.935671 77.963597 10.096555
30 2 2 47.650916 77.296860 9.467288
31 2 2 48.278507 76.774470 8.962472
32 2 2 48.153199 76.733442 8.011570
33 2 2 48.583931 76.759925 7.154033
34 2 2 49.201923 77.337570 6.700148
35 2 2 49.550746 78.148443 6.322778
36 2 2 49.166479 79.012538 6.487946
37 2 2 48.630725 79.522216 5.875740
38 2 2 47.809055 80.006561 5.984684
39 2 2 47.055433 79.475071 6.251463
40 2 2 46.401954 79.403402 5.551871
41 3 1 37.337491 4.893546 7.713259
42 3 1 37.501917 5.202276 6.819252
43 3 1 38.164065 4.876737 6.205098
44 3 1 38.348915 4.042594 5.767335
45 3 1 38.287613 3.283892 6.352325
46 3 2 37.470393 2.815870 6.538623
47 3 2 36.791497 2.931622 5.869818
48 3 2 35.930961 2.692828 5.517603
49 3 2 35.617093 1.825243 5.252304
50 3 2 35.806868 1.098062 4.654983
51 3 2 36.406442 0.443594 5.020744
52 3 2 37.264625 0.487666 5.448739
53 3 2 37.900675 1.087785 5.844842
54 3 2 38.542068 1.609913 6.332282
55 3 2 39.202843 1.993470 6.913539
56 3 2 39.983987 1.924762 7.467338
57 3 2 40.491593 2.361262 8.155382
58 3 2 41.145848 2.431727 8.854370
59 3 2 41.643517 1.697939 9.222448
60 3 2 41.420338 1.473530 10.128776
61 4 1 19.770590 73.816117 8.669694
62 4 1 19.817326 74.524302 8.023250
63 4 1 19.676243 74.652554 7.082374
64 4 1 18.933211 74.274621 6.606277
65 4 1 18.067775 74.343248 7.016047
66 4 2 17.667696 74.736889 7.794882
67 4 2 17.902204 75.397415 8.450863
68 4 2 18.462570 76.015309 8.926044
69 4 2 18.110017 76.666249 9.537259
70 4 2 18.097950 76.934767 10.458862
71 4 2 17.822622 76.397670 11.205402
72 4 2 17.513963 75.907359 11.970859
73 4 2 16.807767 75.330509 12.271078
74 4 2 16.410070 74.752673 12.926472
75 4 2 16.257053 74.314291 13.766715
76 4 2 16.866351 74.099027 14.476657
77 4 2 17.168686 73.342533 14.984506
78 4 2 18.103171 73.517420 15.117743
79 4 2 18.558476 74.303694 14.807791
80 4 2 19.256960 74.824799 14.405089
81 5 1 9.884900 55.910065 16.207157
82 5 1 9.693200 56.611618 16.833794
83 5 1 9.147907 57.386351 16.988855
84 5 1 9.608484 57.944659 17.619538
85 5 1 9.976746 58.516348 18.297148
86 5 2 10.217685 59.443599 18.358423
87 5 2 9.854373 60.332130 18.369167
88 5 2 10.240857 60.929057 17.724257
89 5 2 10.932646 61.443074 17.301393
90 5 2 11.775012 61.629682 16.880445
91 5 2 12.454815 61.403198 16.241561
92 5 2 13.333486 61.503379 16.615060
93 5 2 13.818631 62.314545 16.447002
94 5 2 13.227599 63.046582 16.256206
95 5 2 12.810179 63.337379 17.070330
96 5 2 13.355607 64.083706 17.329373
97 5 2 13.989539 64.348072 18.000075
98 5 2 14.651482 65.027387 18.148273
99 5 2 15.051506 65.895195 18.056133
100 5 2 15.646272 66.549785 17.682815
101 6 1 19.685397 54.161222 10.781395
102 6 1 19.424105 55.052502 11.024182
103 6 1 18.631986 55.388852 10.598721
104 6 1 17.929990 55.279655 9.953061
105 6 1 17.978294 54.922074 9.063453
106 6 2 18.556815 55.180407 8.342219
107 6 2 19.312435 54.688614 8.012404
108 6 2 19.793262 53.860087 7.949557
109 6 2 20.402723 53.725514 7.220142
110 6 2 20.862109 54.544493 7.020549
111 6 2 20.874604 55.483568 7.219501
112 6 2 20.532460 56.259285 7.669834
113 6 2 19.924066 56.325497 8.409478
114 6 2 19.347885 55.575561 8.244518
115 6 2 18.752958 55.192024 8.893025
116 6 2 18.426024 54.808398 9.710059
117 6 2 18.919125 54.318113 10.371929
118 6 2 19.567881 54.435612 11.069719
119 6 2 19.947028 55.048570 11.703855
120 6 2 20.813043 55.460506 11.747756
121 7 1 26.954584 22.903090 16.442770
122 7 1 27.037909 22.267766 17.157627
123 7 1 27.657147 22.437459 17.871314
124 7 1 28.324622 21.878662 18.276063
125 7 1 28.969417 21.286126 17.882691
126 7 2 29.628075 21.364233 17.188667
127 7 2 30.523587 21.682336 17.052772
128 7 2 31.434705 21.973767 17.133593
129 7 2 31.996851 21.681113 16.412520
130 7 2 32.689596 22.254958 16.077250
131 7 2 32.774147 23.174217 15.813783
132 7 2 33.195096 23.963816 16.161539
133 7 2 33.193774 24.629050 16.853683
134 7 2 33.140696 25.056692 17.711532
135 7 2 33.281574 25.485933 18.558589
136 7 2 33.057900 26.045157 19.306143
137 7 2 32.326010 25.695741 19.819803
138 7 2 31.453277 26.089552 19.750157
139 7 2 30.709170 25.986719 20.347927
140 7 2 30.302165 26.479422 21.064301
141 8 1 45.989357 18.866424 19.980456
142 8 1 46.490293 18.162619 20.399169
143 8 1 46.331468 17.420331 20.986864
144 8 1 46.336206 16.499100 21.256882
145 8 1 46.028624 16.130777 22.088345
146 8 2 45.697837 15.239036 21.958047
147 8 2 45.333693 14.885288 22.772824
148 8 2 45.545632 15.294069 23.615190
149 8 2 46.199963 15.594606 24.250113
150 8 2 46.011548 16.316050 24.854777
151 8 2 46.597390 17.073806 24.919553
152 8 2 47.102492 17.467152 25.634921
153 8 2 47.078044 18.401593 25.416239
154 8 2 47.392395 19.012430 24.745671
155 8 2 46.905383 19.534444 24.103861
156 8 2 47.207321 20.193824 23.474852
157 8 2 48.162402 20.248341 23.555159
158 8 2 48.484809 21.142102 23.417883
159 8 2 49.272241 21.689974 23.380641
160 8 2 49.574584 22.095041 22.564486
161 9 1 10.526495 69.450593 18.901444
162 9 1 10.333322 68.771230 18.251253
163 9 1 9.663799 68.994118 17.600361
164 9 1 9.043460 69.724682 17.545092
165 9 1 8.671749 70.363729 16.932678
166 9 2 8.239794 70.943090 16.300732
167 9 2 8.383641 71.334830 15.436182
168 9 2 8.927929 71.286813 14.646850
169 9 2 8.235255 71.034799 14.031795
170 9 2 8.572714 70.696222 13.199277
171 9 2 8.312788 70.155608 12.449760
172 9 2 8.402282 69.401095 11.862988
173 9 2 8.347620 68.466060 12.073515
174 9 2 7.689784 67.979872 12.575983
175 9 2 7.024305 68.515280 13.014248
176 9 2 6.302343 68.866306 12.487798
177 9 2 6.366587 68.551080 11.583306
178 9 2 5.840587 68.991029 10.911466
179 9 2 5.225803 69.323242 10.253229
180 9 2 4.596142 70.047489 10.228871
181 10 1 34.530116 6.810412 0.532571
182 10 1 34.842477 6.173951 1.179833
183 10 1 34.692119 5.303011 1.554607
184 10 1 35.451057 4.888122 1.971117
185 10 1 36.259608 5.351261 2.202086
186 10 2 36.112544 5.791720 3.042305
187 10 2 36.713581 6.043500 3.747259
188 10 2 37.312261 6.753217 3.991155
189 10 2 38.095173 7.231302 4.274146
190 10 2 38.635579 7.527201 3.537936
191 10 2 38.803596 8.280558 2.967127
192 10 2 38.351546 8.859927 2.349404
193 10 2 37.965930 9.278639 1.576370
194 10 2 37.350342 10.014328 1.538777
195 10 2 36.966632 10.628620 2.168867
196 10 2 36.418994 11.382106 1.936593
197 10 2 36.152668 12.069975 2.551008
198 10 2 35.370546 12.592560 2.742819
199 10 2 34.488628 12.965048 2.814037
200 10 2 34.329207 13.783131 3.290404
201 11 1 49.461508 73.590672 1.591783
202 11 1 49.700801 73.772612 2.503505
203 11 1 50.402160 74.410877 2.652883
204 11 1 51.180846 73.971127 3.001979
205 11 1 51.870749 73.330761 3.190565
206 11 2 52.363742 72.618331 3.604088
207 11 2 52.463719 72.952413 4.498511
208 11 2 53.028777 73.724962 4.572526
209 11 2 53.405289 74.403569 5.137619
210 11 2 53.027065 75.251889 5.380314
211 11 2 53.186084 75.749286 6.185863
212 11 2 52.365834 76.163893 6.463154
213 11 2 51.740377 75.667519 6.996086
214 11 2 51.530755 75.612056 7.931277
215 11 2 50.952993 76.203774 8.418782
216 11 2 50.984412 76.842422 9.134842
217 11 2 51.231708 77.768703 9.184317
218 11 2 51.823363 78.441742 8.839985
219 11 2 52.430459 78.761083 8.168379
220 11 2 53.052156 78.530415 7.474199
221 12 1 5.180158 11.290866 13.043078
222 12 1 5.989340 10.801878 12.876601
223 12 1 6.643865 10.781344 13.578581
224 12 1 7.510676 11.001958 13.927247
225 12 1 8.338343 10.612537 13.635837
226 12 2 8.620830 10.138690 14.421503
227 12 2 9.177569 9.962991 15.183587
228 12 2 9.929106 10.393400 15.597760
229 12 2 10.687765 10.679132 16.111954
230 12 2 11.399281 10.148507 16.477716
231 12 2 11.471380 9.218116 16.703050
232 12 2 11.748615 8.359886 16.374140
233 12 2 12.046524 7.830503 17.117513
234 12 2 11.737240 6.938797 17.293026
235 12 2 11.866250 6.192876 17.883414
236 12 2 11.771583 5.245530 18.006596
237 12 2 10.948197 5.116406 18.483003
238 12 2 10.806345 5.489638 19.356030
239 12 2 11.248473 6.160761 19.881117
240 12 2 11.425201 6.835133 20.541109
241 13 1 26.791515 34.466408 5.191067
242 13 1 26.113554 34.361429 5.862593
243 13 1 25.783815 35.107212 6.369228
244 13 1 26.495970 35.707481 6.601847
245 13 1 27.018016 35.688338 7.407268
246 13 2 27.114518 34.961619 8.027080
247 13 2 27.015363 34.191141 7.463048
248 13 2 27.332593 33.560602 6.812367
249 13 2 27.447328 32.917367 6.109030
250 13 2 26.620823 32.522758 5.821326
251 13 2 25.751979 32.171138 5.613785
252 13 2 25.042846 31.749596 5.122834
253 13 2 24.445042 32.308395 4.620864
254 13 2 23.956363 32.764519 3.931848
255 13 2 24.432088 33.499833 3.538656
256 13 2 24.846553 34.126566 2.941141
257 13 2 25.578644 34.715250 3.138867
258 13 2 26.325755 34.655903 2.538948
259 13 2 26.744435 34.071534 1.902694
260 13 2 27.438983 34.215374 1.255768
261 14 1 14.531487 19.263253 14.763857
262 14 1 14.746567 18.365311 15.026615
263 14 1 14.619948 17.425948 14.874418
264 14 1 14.950849 17.123581 14.025490
265 14 1 14.866345 16.170310 14.101197
266 14 2 14.425326 15.498082 14.625804
267 14 2 13.792336 15.357400 15.333711
268 14 2 13.231000 14.849278 15.923892
269 14 2 12.354723 14.732128 15.549705
270 14 2 11.693798 14.037816 15.497656
271 14 2 11.101794 14.147538 14.749931
272 14 2 10.275422 13.798685 14.407862
273 14 2 9.743842 13.141352 13.952960
274 14 2 9.388731 12.451058 14.517753
275 14 2 8.500504 12.322190 14.858406
276 14 2 8.281385 11.881324 15.682557
277 14 2 9.030309 11.653937 16.238441
278 14 2 9.858755 11.231266 16.476404
279 14 2 9.788313 10.558054 17.157156
280 14 2 9.167526 9.826262 17.130633
281 15 1 36.289431 62.180241 14.175731
282 15 1 36.699542 62.657944 13.451018
283 15 1 37.013643 62.373129 12.589728
284 15 1 36.413758 61.761917 12.155957
285 15 1 36.637351 61.200323 11.410157
286 15 2 37.499058 61.390592 11.032191
287 15 2 37.624297 62.341269 11.078324
288 15 2 37.488689 62.877483 11.862979
289 15 2 36.795498 63.541614 11.866981
290 15 2 36.686963 64.027235 12.687952
291 15 2 37.079298 64.292279 13.523071
292 15 2 37.920652 64.563016 13.897806
293 15 2 38.591412 64.085238 14.391172
294 15 2 39.536634 64.056228 14.556440
295 15 2 40.353228 64.510591 14.776278
296 15 2 40.934107 65.265058 14.898577
297 15 2 41.224351 65.717228 14.103026
298 15 2 41.792204 65.512445 13.356564
299 15 2 41.991352 66.160792 12.677161
300 15 2 41.673550 66.620599 11.896662
301 16 1 54.752953 3.808617 13.866428
302 16 1 53.855579 3.966573 13.564152
303 16 1 53.192401 3.811844 12.887503
304 16 1 52.482163 3.172581 12.795291
305 16 1 52.132308 2.297394 12.977640
306 16 2 51.649109 1.655460 13.503034
307 16 2 51.643249 1.203710 14.350080
308 16 2 52.009998 1.546452 15.168386
309 16 2 52.098931 1.955693 16.032222
310 16 2 51.575491 2.744696 16.190609
311 16 2 51.711974 3.467381 15.573602
312 16 2 51.773369 3.307934 14.628928
313 16 2 51.660328 2.804293 13.819504
314 16 2 52.009665 2.214189 13.147685
315 16 2 51.403994 1.508185 12.910367
316 16 2 51.245196 1.460881 11.964774
317 16 2 51.887653 1.903376 11.405268
318 16 2 52.664544 2.321584 11.026925
319 16 2 52.880681 3.178393 11.402108
320 16 2 53.751896 3.251701 11.798605
321 17 1 7.213673 36.364014 8.235274
322 17 1 6.445099 36.566560 7.696879
323 17 1 6.154772 37.466088 7.529070
324 17 1 6.184583 38.068256 8.276134
325 17 1 6.218327 38.702247 8.996216
326 17 2 5.774604 39.441291 9.418737
327 17 2 5.180839 39.959055 8.870136
328 17 2 4.898054 40.801624 8.507217
329 17 2 4.376458 41.480477 8.941608
330 17 2 4.539696 42.216862 9.535486
331 17 2 4.407300 42.521165 10.436303
332 17 2 3.996606 42.711347 11.282920
333 17 2 3.440045 43.404337 11.645694
334 17 2 2.850134 43.931243 11.101658
335 17 2 3.267197 44.779357 11.270061
336 17 2 3.586097 45.383144 11.944853
337 17 2 4.287298 46.011746 11.758366
338 17 2 3.919100 46.871727 11.542811
339 17 2 3.656675 47.711741 11.159264
340 17 2 3.724074 48.188553 10.328777
341 18 1 18.479500 10.567806 17.165977
342 18 1 18.261341 11.229890 16.505938
343 18 1 17.611867 11.717485 15.994046
344 18 1 17.258077 11.876643 15.115922
345 18 1 17.884742 12.231363 14.481048
346 18 2 18.820814 12.260282 14.692073
347 18 2 19.498752 12.794437 15.112405
348 18 2 20.222604 12.320129 15.527942
349 18 2 20.311647 11.440251 15.154465
350 18 2 20.250081 10.886167 15.936002
351 18 2 20.527410 10.026010 16.259760
352 18 2 20.633619 9.404054 16.983286
353 18 2 21.489181 8.971011 17.028988
354 18 2 22.075666 8.626647 17.706519
355 18 2 22.554816 7.863039 18.036547
356 18 2 22.732702 6.937432 17.854316
357 18 2 22.942961 6.506610 18.686051
358 18 2 23.673658 6.030218 19.086966
359 18 2 24.441399 6.281118 19.605834
360 18 2 24.907347 6.861039 20.212615
361 19 1 20.931088 68.556466 12.707395
362 19 1 20.866062 67.632633 12.454599
363 19 1 21.460195 66.936095 12.165738
364 19 1 22.151336 66.738705 11.529372
365 19 1 22.555225 65.869946 11.468283
366 19 2 22.698718 65.048544 10.992564
367 19 2 22.722404 64.298486 10.393855
368 19 2 22.741447 63.511190 10.942855
369 19 2 22.338927 62.818705 11.472046
370 19 2 21.839417 62.147494 11.942754
371 19 2 21.009497 61.915583 11.519612
372 19 2 21.104326 61.006544 11.225920
373 19 2 20.618880 60.825733 10.417681
374 19 2 19.975220 60.507321 9.780567
375 19 2 19.236316 59.901332 9.688916
376 19 2 18.498154 59.904304 10.302682
377 19 2 18.469372 60.728379 10.794283
378 19 2 18.132818 61.498147 11.258813
379 19 2 18.005110 61.419299 12.207008
380 19 2 17.621051 61.985529 12.880419
381 20 1 7.741181 66.847267 12.835118
382 20 1 8.289757 66.527947 12.114911
383 20 1 7.897867 66.111101 11.344027
384 20 1 7.377888 65.762401 10.616270
385 20 1 7.275553 65.646752 9.668772
386 20 2 7.588282 65.449558 8.782817
387 20 2 7.494166 66.255334 8.269527
388 20 2 7.462207 66.996924 8.878316
389 20 2 6.692690 67.035244 9.451006
390 20 2 6.992993 67.396349 10.288276
391 20 2 6.477236 68.150861 10.582053
392 20 2 6.833278 68.991441 10.284966
393 20 2 7.566156 69.336062 10.800452
394 20 2 8.253270 69.996071 10.918192
395 20 2 8.643352 70.863089 10.785095
396 20 2 9.336348 71.424513 10.429903
397 20 2 10.072022 72.031598 10.321129
398 20 2 10.896879 71.618172 10.056010
399 20 2 11.342909 71.277612 10.834904
400 20 2 10.851528 70.599272 11.303946
401 21 1 39.208211 60.368595 11.556407
402 21 1 39.584069 59.748217 12.185264
403 21 1 39.388624 59.392398 13.055203
404 21 1 39.793485 58.548014 13.266631
405 21 1 40.395849 57.872179 13.586012
406 21 2 40.744280 57.021240 13.861874
407 21 2 41.066417 56.119963 13.787529
408 21 2 41.816886 55.541198 13.940590
409 21 2 42.150502 55.008512 13.214955
410 21 2 41.936633 55.346964 12.342424
411 21 2 42.537352 55.703433 11.683889
412 21 2 42.595909 55.435684 10.763845
413 21 2 43.220424 55.231656 10.063878
414 21 2 43.899073 54.553065 10.087307
415 21 2 44.659465 54.430321 9.514300
416 21 2 45.098618 54.846842 8.769145
417 21 2 45.730060 55.523598 8.514425
418 21 2 46.161106 55.526088 7.656641
419 21 2 46.551631 55.618548 6.784551
420 21 2 46.824223 56.199575 6.070617
421 22 1 37.971452 43.051214 3.549160
422 22 1 38.252578 42.679898 4.388620
423 22 1 38.942153 42.706521 5.055986
424 22 1 39.221072 43.348097 5.713394
425 22 1 39.976575 43.062550 6.232314
426 22 2 40.787241 43.509952 6.485794
427 22 2 41.285143 44.256562 6.826774
428 22 2 41.623839 44.884793 7.468810
429 22 2 42.245997 45.532075 7.128890
430 22 2 43.142621 45.856344 7.017017
431 22 2 43.996907 46.256854 6.839852
432 22 2 44.305509 46.671728 6.030998
433 22 2 44.747968 46.064443 5.433474
434 22 2 44.172058 45.373489 5.098050
435 22 2 43.289911 45.750735 5.131242
436 22 2 42.613395 45.809165 5.809852
437 22 2 41.996069 46.346657 6.311460
438 22 2 41.396603 47.079753 6.468976
439 22 2 40.501504 46.954425 6.792535
440 22 2 39.681458 47.236071 7.204604
441 23 1 0.957619 47.961540 7.494623
442 23 1 0.337606 47.897175 8.224720
443 23 1 56.526828 48.075447 8.706859
444 23 1 55.904381 48.657666 9.148652
445 23 1 55.289496 49.120595 8.574882
446 23 2 54.785984 49.769803 8.078289
447 23 2 54.539671 50.366177 7.367467
448 23 2 53.880124 50.859945 6.874728
449 23 2 53.639792 51.789372 6.877308
450 23 2 54.241949 52.431852 7.259704
451 23 2 54.043351 53.369164 7.199670
452 23 2 53.456992 54.079603 6.929375
453 23 2 53.350723 53.858447 6.001260
454 23 2 53.789828 53.260234 5.392221
455 23 2 54.342187 52.476421 5.346007
456 23 2 53.866958 51.687870 5.074080
457 23 2 53.638896 51.004108 4.440000
458 23 2 54.099606 50.352480 3.906402
459 23 2 53.517330 49.649721 3.608602
460 23 2 52.740522 49.293847 4.046234
461 24 1 19.907229 24.606691 12.719315
462 24 1 20.315591 24.580398 11.850897
463 24 1 20.393264 25.524714 11.696515
464 24 1 20.448718 26.454882 11.927409
465 24 1 20.421434 27.129308 12.610055
466 24 2 21.258332 27.398680 12.995593
467 24 2 21.669943 27.931481 13.679917
468 24 2 21.886696 28.866497 13.660852
469 24 2 22.532836 29.343081 14.187132
470 24 2 22.918452 30.207966 14.344847
471 24 2 22.343954 30.968026 14.227114
472 24 2 21.657524 31.526850 13.855458
473 24 2 21.615757 31.815699 12.940897
474 24 2 22.376228 31.977666 12.377824
475 24 2 22.536324 31.303454 11.713439
476 24 2 23.125243 31.530790 10.990187
477 24 2 23.639880 31.202545 10.249239
478 24 2 24.152478 31.610913 9.547756
479 24 2 24.835952 31.562297 8.875372
480 24 2 24.903798 30.647270 8.593020
481 25 1 51.668444 39.138090 13.296493
482 25 1 51.658144 38.254328 12.921716
483 25 1 51.770895 38.502829 12.001317
484 25 1 51.198345 39.153879 11.589102
485 25 1 50.646735 39.688726 12.164658
486 25 2 50.035419 40.426665 12.222446
487 25 2 50.379549 41.282643 12.487921
488 25 2 51.110885 41.056261 13.067144
489 25 2 51.740986 40.514598 13.547949
490 25 2 52.385609 40.111963 12.961480
491 25 2 53.148903 39.534350 13.034603
492 25 2 54.076236 39.700194 12.849811
493 25 2 54.730664 40.247784 13.289663
494 25 2 55.517575 40.505374 12.803845
495 25 2 56.049281 41.035929 12.206017
496 25 2 56.596667 40.945775 11.422537
497 25 2 0.429572 40.712350 11.006145
498 25 2 0.536179 39.760269 11.067608
499 25 2 1.185664 39.105048 10.802174
500 25 2 1.483748 38.528197 10.095076
501 26 1 8.125181 88.243421 19.804956
502 26 1 7.599142 87.635808 20.330017
503 26 1 7.072585 87.473398 21.116121
504 26 1 6.203351 87.100873 20.951023
505 26 1 5.937640 86.360208 21.500944
506 26 2 5.311136 85.719089 21.844541
507 26 2 4.980853 85.090702 22.490795
508 26 2 4.091600 84.846435 22.757558
509 26 2 4.058338 84.241362 23.502125
510 26 2 4.864361 83.784362 23.753280
511 26 2 5.323221 83.192387 23.152769
512 26 2 4.905188 82.451358 22.708107
513 26 2 5.320453 81.848758 22.086796
514 26 2 6.185005 81.779766 21.675226
515 26 2 6.479599 81.212348 20.959090
516 26 2 6.714804 80.281723 20.944441
517 26 2 7.629662 80.183468 21.218268
518 26 2 7.725748 80.087280 22.168592
519 26 2 8.293073 79.616391 22.783414
520 26 2 8.380428 78.661003 22.748744
521 27 1 33.016455 77.481228 0.176252
522 27 1 32.819426 77.688495 1.092669
523 27 1 32.448977 78.428740 1.578884
524 27 1 31.725778 79.036862 1.409264
525 27 1 31.555315 79.979997 1.354135
526 27 2 31.245635 80.847014 1.626126
527 27 2 30.738451 81.536442 1.191323
528 27 2 30.587875 82.479947 1.097920
529 27 2 29.894632 83.140248 1.168747
530 27 2 30.232018 84.033123 1.066057
531 27 2 30.191963 84.770805 1.679098
532 27 2 29.709215 85.574441 1.885795
533 27 2 29.106308 85.651849 2.628838
534 27 2 28.182179 85.491929 2.833801
535 27 2 27.559869 86.213965 2.719804
536 27 2 26.897453 86.570099 2.123170
537 27 2 26.604208 86.317027 1.244784
538 27 2 26.807061 85.383633 1.148737
539 27 2 27.617998 85.378162 1.662499
540 27 2 28.258902 86.061641 1.453456
541 28 1 49.526458 54.711792 8.222713
542 28 1 48.819253 54.214044 8.639497
543 28 1 49.200974 53.568891 9.239219
544 28 1 50.142017 53.734166 9.332607
545 28 1 50.487746 53.565316 8.453084
546 28 2 51.161325 53.270984 7.835622
547 28 2 52.061074 52.983100 7.664812
548 28 2 52.810799 53.235436 7.120902
549 28 2 52.918353 52.569313 6.438031
550 28 2 52.327682 51.837368 6.245769
551 28 2 51.664324 51.570273 5.605288
552 28 2 51.542062 51.002333 4.841026
553 28 2 51.798094 50.376990 4.159122
554 28 2 51.807125 50.816499 3.305687
555 28 2 52.603829 51.344640 3.216642
556 28 2 53.432162 51.345321 2.731396
557 28 2 53.976709 51.943288 2.214188
558 28 2 53.924695 52.451948 1.401686
559 28 2 54.509348 53.209676 1.326652
560 28 2 54.477887 54.005126 1.863185
561 29 1 28.357048 5.457869 5.199156
562 29 1 29.065042 6.090714 5.340055
563 29 1 29.774321 6.695808 5.568933
564 29 1 29.456604 7.168680 6.341622
565 29 1 28.882370 7.292192 7.100964
566 29 2 28.167927 7.614188 7.655481
567 29 2 28.281103 8.516313 7.963640
568 29 2 29.205854 8.772604 7.936233
569 29 2 29.775729 8.540032 8.672950
570 29 2 30.336693 8.860049 9.383238
571 29 2 30.891934 9.406953 9.943776
572 29 2 31.213455 10.058857 9.316683
573 29 2 30.918979 10.865842 8.888130
574 29 2 31.323704 11.127368 8.057828
575 29 2 31.439219 10.327944 7.539004
576 29 2 30.829574 9.615200 7.334239
577 29 2 29.884834 9.773833 7.396705
578 29 2 29.093576 9.236219 7.316189
579 29 2 28.619476 9.021121 6.509615
580 29 2 27.914743 8.621241 5.994787
581 30 1 46.066558 89.273860 8.923545
582 30 1 45.273834 89.789414 9.089048
583 30 1 44.498200 0.168644 8.669315
584 30 1 43.983919 0.822766 8.190524
585 30 1 44.253890 1.243815 7.371114
586 30 2 44.863058 0.854381 6.739564
587 30 2 45.689103 1.309198 6.559587
588 30 2 46.577986 1.657793 6.459741
589 30 2 46.809714 2.583510 6.355102
590 30 2 46.417953 3.058445 5.618516
591 30 2 45.709107 2.807734 5.021623
592 30 2 44.981319 2.208630 5.203275
593 30 2 44.366639 1.660845 5.696936
594 30 2 43.591825 2.156253 5.972314
595 30 2 43.099653 1.956279 6.771924
596 30 2 42.778986 1.910798 7.675641
597 30 2 42.212178 2.590577 8.047433
598 30 2 41.621081 3.296367 7.775284
599 30 2 40.966979 3.872992 8.176850
600 30 2 40.221292 3.688024 8.752470
601 31 1 29.347084 23.899743 0.403820
602 31 1 29.024519 24.149852 1.272725
603 31 1 28.615938 23.838958 2.083901
604 31 1 28.781649 23.085759 2.655592
605 31 1 28.461048 22.326864 3.148434
606 31 2 28.019834 21.964284 3.920099
607 31 2 27.692925 21.174040 4.356269
608 31 2 26.913048 20.683193 4.625454
609 31 2 26.420703 20.414117 5.404425
610 31 2 26.141099 19.694630 5.975178
611 31 2 26.745042 18.982102 6.196888
612 31 2 26.323043 18.119895 6.207674
613 31 2 25.655595 17.543659 6.587232
614 31 2 24.940847 18.071907 6.950121
615 31 2 24.042933 18.327910 6.726933
616 31 2 23.792909 17.942177 5.884141
617 31 2 23.906621 18.354543 5.024709
618 31 2 23.468053 18.854768 4.332587
619 31 2 24.011887 19.378970 3.740087
620 31 2 24.933600 19.606199 3.597215
621 32 1 30.005176 18.176201 9.067109
622 32 1 29.353602 18.469681 9.708140
623 32 1 29.276420 18.621785 10.652866
624 32 1 29.742850 19.377220 11.018052
625 32 1 29.790552 20.304816 11.260726
626 32 2 29.122783 20.860510 10.852205
627 32 2 29.335472 21.371057 10.067537
628 32 2 29.303624 22.330211 10.042860
629 32 2 28.678144 22.814062 9.498559
630 32 2 29.040103 23.344261 8.784783
631 32 2 29.340746 24.173236 8.405292
632 32 2 29.956855 24.897141 8.271232
633 32 2 30.119390 25.737539 7.836591
634 32 2 30.096864 26.662664 8.092008
635 32 2 30.401324 27.354732 7.500445
636 32 2 30.263803 27.370038 6.550470
637 32 2 30.364898 27.017369 5.663337
638 32 2 29.697479 26.398511 5.358105
639 32 2 28.780206 26.348330 5.636838
640 32 2 28.218395 26.790554 6.277469
641 33 1 50.043164 38.773502 14.677359
642 33 1 50.463561 37.913308 14.607129
643 33 1 50.589323 37.368932 15.387794
644 33 1 49.850652 37.218841 15.982301
645 33 1 49.698503 36.271591 16.016489
646 33 2 48.940971 35.941707 15.527692
647 33 2 48.521647 35.257952 16.055183
648 33 2 48.688221 34.826833 16.896604
649 33 2 49.171881 34.004563 17.004051
650 33 2 50.123832 34.099042 16.923665
651 33 2 50.755642 33.383597 16.820923
652 33 2 51.626344 33.217851 16.452135
653 33 2 52.582299 33.278828 16.388638
654 33 2 53.356177 33.691407 16.779140
655 33 2 54.083249 34.202319 17.142368
656 33 2 54.900762 34.705508 17.133749
657 33 2 55.546554 34.571678 16.436152
658 33 2 56.222078 33.910030 16.601954
659 33 2 56.749322 33.307922 17.132123
660 33 2 56.559873 33.432706 18.064935
661 34 1 33.153638 80.167662 19.633462
662 34 1 32.408908 79.762128 19.183441
663 34 1 31.608172 79.773501 18.654014
664 34 1 30.905810 79.175495 18.388164
665 34 1 30.684936 78.570762 17.676046
666 34 2 29.834304 78.125843 17.684568
667 34 2 29.920440 77.236554 17.333363
668 34 2 30.540290 76.820493 16.729807
669 34 2 30.939808 76.020756 17.079675
670 34 2 31.552485 75.496956 16.558273
671 34 2 32.308684 75.857963 16.089832
672 34 2 33.078355 75.840756 16.663340
673 34 2 33.832973 76.351009 16.966313
674 34 2 34.649533 76.310690 16.463119
675 34 2 35.253411 76.537062 15.752002
676 34 2 35.944288 76.636196 15.092865
677 34 2 36.465438 76.493610 14.299346
678 34 2 36.869377 77.120817 13.695157
679 34 2 36.732540 77.247626 12.753459
680 34 2 35.954954 77.775252 12.557066
681 35 1 31.472839 26.847394 13.680927
682 35 1 32.223438 27.392930 13.434774
683 35 1 33.045268 27.201271 12.977102
684 35 1 33.757638 26.976479 12.374112
685 35 1 34.558426 26.843483 11.861617
686 35 2 34.720797 26.068681 11.318554
687 35 2 35.000413 25.232437 11.698174
688 35 2 35.349266 24.634004 11.033508
689 35 2 35.969574 24.119490 10.511883
690 35 2 36.120075 23.554745 9.750298
691 35 2 36.854124 22.945141 9.644677
692 35 2 37.551662 23.118497 9.008290
693 35 2 38.023610 23.787214 8.506610
694 35 2 38.189318 24.516189 7.904334
695 35 2 37.720888 25.159674 7.367584
696 35 2 37.004551 25.436157 6.791374
697 35 2 36.613254 25.442117 5.914760
698 35 2 37.040961 25.317171 5.064434
699 35 2 37.839261 25.117540 4.570001
700 35 2 38.736862 25.404182 4.386294
701 36 1 11.124697 72.047258 8.122395
702 36 1 11.686907 71.352708 8.473279
703 36 1 11.596337 70.470031 8.106838
704 36 1 11.499827 69.569935 7.787288
705 36 1 11.655036 69.253294 6.894401
706 36 2 11.985163 69.922065 6.289949
707 36 2 12.042330 70.658284 5.676506
708 36 2 12.957028 70.808539 5.426806
709 36 2 13.063880 71.761782 5.387936
710 36 2 13.707754 72.459112 5.243859
711 36 2 14.389899 72.541987 4.573478
712 36 2 14.933519 72.702576 3.798695
713 36 2 15.105280 72.506845 2.874689
714 36 2 14.598194 72.471168 2.060324
715 36 2 14.162784 73.313426 1.909925
716 36 2 13.643767 73.755193 1.233860
717 36 2 13.862392 74.685032 1.329787
718 36 2 13.517450 75.531231 1.624003
719 36 2 14.136341 76.118568 2.064013
720 36 2 14.821724 76.628208 1.625700
721 37 1 34.884854 72.439666 19.605568
722 37 1 34.218602 72.678670 20.254093
723 37 1 33.515236 72.722342 20.905990
724 37 1 33.580788 71.997369 21.531863
725 37 1 34.117455 71.432349 22.092525
726 37 2 34.271198 71.833694 22.950945
727 37 2 34.565165 72.279429 23.748757
728 37 2 34.890526 72.358997 24.648428
729 37 2 35.664490 72.890304 24.849159
730 37 2 36.067098 73.382264 24.129797
731 37 2 36.724481 73.933819 23.699409
732 37 2 37.555948 74.099190 24.149870
733 37 2 38.191402 74.781188 24.379385
734 37 2 38.405928 75.477428 25.004548
735 37 2 38.119885 76.308666 25.390322
736 37 2 38.587319 77.121058 25.182654
737 37 2 38.047860 77.744245 24.690494
738 37 2 38.648571 78.307003 24.196481
739 37 2 39.521480 78.481139 24.556075
740 37 2 40.254475 79.085408 24.694557
741 38 1 30.550126 35.439019 10.061502
742 38 1 31.435981 35.781323 10.201819
743 38 1 32.036178 35.891913 10.942854
744 38 1 32.727191 36.540679 11.095180
745 38 1 33.436148 37.110255 10.787667
746 38 2 34.157441 37.340541 10.197494
747 38 2 34.965739 37.071937 9.754655
748 38 2 35.815909 36.626445 9.736028
749 38 2 36.479019 35.942230 9.618828
750 38 2 37.363615 35.605820 9.779817
751 38 2 37.944792 35.007953 10.255620
752 38 2 38.040746 35.401655 11.125903
753 38 2 37.590694 35.156473 11.937653
754 38 2 36.789103 34.745652 12.269735
755 38 2 36.256569 34.246532 11.646128
756 38 2 36.563466 33.421056 11.264024
757 38 2 36.366050 32.571347 10.863247
758 38 2 36.942584 32.045425 10.304127
759 38 2 37.822090 32.117205 9.926085
760 38 2 38.753345 32.127919 10.159000
761 39 1 6.488351 58.980528 16.586146
762 39 1 7.265871 59.086693 16.033163
763 39 1 7.314091 59.919138 15.557442
764 39 1 6.639778 60.601237 15.597972
765 39 1 5.832684 61.013061 15.280799
766 39 2 5.066344 61.222067 15.819911
767 39 2 4.708101 61.131012 16.705896
768 39 2 3.758230 61.117753 16.844350
769 39 2 3.144529 61.804465 17.115267
770 39 2 3.675970 62.601883 17.057862
771 39 2 3.233679 63.315957 17.522702
772 39 2 3.738342 64.122928 17.397347
773 39 2 4.396065 64.201111 16.702445
774 39 2 5.271940 64.510834 16.460546
775 39 2 5.870386 64.907788 15.823453
776 39 2 5.488304 65.222597 15.000951
777 39 2 4.863840 64.575527 14.664880
778 39 2 4.144934 64.215401 14.140396
779 39 2 4.045924 63.456792 13.560473
780 39 2 3.871840 62.777764 12.904565
781 40 1 6.795882 25.655498 12.166030
782 40 1 7.556293 25.913065 12.692371
783 40 1 8.246485 25.307598 12.972808
784 40 1 8.845768 25.280077 13.722276
785 40 1 9.582796 24.722672 13.982450
786 40 2 10.335227 24.126876 13.960677
787 40 2 11.062062 24.485946 14.474855